[ defaults ]
; nbfunc	comb-rule	gen-pairs	fudgeLJ	fudgeQQ
     1	     2	yes   	0.500000	0.833333

#include "af3_c1_dodecahedron_atomtypes.itp"
#include "af3_c1_dodecahedron_protein.itp"
#ifdef POSRES
#include "posre_protein.itp"
#endif
#include "af3_c1_dodecahedron_pTyr_peptide.itp"
#include "af3_c1_dodecahedron_SOL.itp"
#include "af3_c1_dodecahedron_NA.itp"

[ system ]
;name
FOO

[ molecules ]
;name	number
protein	1
pTyr_peptide	1
SOL	6285
NA	2

