[ moleculetype ]
pTyr_peptide	         3

[ atoms ]
;index, atom type, resnum, resname, name, cgnr, charge, mass
     1 pTyr_peptide_0       1 LIG      N          1     -0.546837800692     14.006720000000
     2 pTyr_peptide_1       1 LIG      CA         1      0.061407177199     12.010780000000
     3 pTyr_peptide_2       1 LIG      C          1      0.659845894624     12.010780000000
     4 pTyr_peptide_3       1 LIG      O          1     -0.623401576231     15.999430000000
     5 pTyr_peptide_4       1 LIG      CB         1     -0.077581690203     12.010780000000
     6 pTyr_peptide_5       1 LIG      CG         1     -0.209974282931     12.010780000000
     7 pTyr_peptide_6       1 LIG      CD         1      0.917205578138     12.010780000000
     8 pTyr_peptide_7       1 LIG      OE1        1     -0.834845954131     15.999430000000
     9 pTyr_peptide_8       1 LIG      OE2        1     -0.834845954131     15.999430000000
    10 pTyr_peptide_9       1 LIG      N          1     -0.471922123383     14.006720000000
    11 pTyr_peptide_10       1 LIG      CA         1      0.040806567718     12.010780000000
    12 pTyr_peptide_11       1 LIG      C          1      0.653860634615     12.010780000000
    13 pTyr_peptide_12       1 LIG      O          1     -0.596419745634     15.999430000000
    14 pTyr_peptide_13       1 LIG      CB         1     -0.092726634394     12.010780000000
    15 pTyr_peptide_14       1 LIG      CG         1     -0.095761248420     12.010780000000
    16 pTyr_peptide_15       1 LIG      CD         1      0.090575805356     12.010780000000
    17 pTyr_peptide_16       1 LIG      N          1     -0.563206607054     14.006720000000
    18 pTyr_peptide_17       1 LIG      CA         1      0.032516161402     12.010780000000
    19 pTyr_peptide_18       1 LIG      C          1      0.645382171918     12.010780000000
    20 pTyr_peptide_19       1 LIG      O          1     -0.612752968024     15.999430000000
    21 pTyr_peptide_20       1 LIG      CB         1     -0.086463355969     12.010780000000
    22 pTyr_peptide_21       1 LIG      CG         1     -0.170597621749     12.010780000000
    23 pTyr_peptide_22       1 LIG      CD         1      0.662397688676     12.010780000000
    24 pTyr_peptide_23       1 LIG      NE2        1     -0.689113610934     14.006720000000
    25 pTyr_peptide_24       1 LIG      OE1        1     -0.605212622832     15.999430000000
    26 pTyr_peptide_25       1 LIG      N          1     -0.565157943915     14.006720000000
    27 pTyr_peptide_26       1 LIG      CA         1      0.090169778515     12.010780000000
    28 pTyr_peptide_27       1 LIG      C          1      0.361741876651     12.010780000000
    29 pTyr_peptide_28       1 LIG      O          1     -0.603660756300     15.999430000000
    30 pTyr_peptide_29       1 LIG      CB         1     -0.078802609394     12.010780000000
    31 pTyr_peptide_30       1 LIG      CG         1     -0.067691692661     12.010780000000
    32 pTyr_peptide_31       1 LIG      CD1        1     -0.063067057680     12.010780000000
    33 pTyr_peptide_32       1 LIG      CD2        1     -0.063067057680     12.010780000000
    34 pTyr_peptide_33       1 LIG      CE1        1     -0.065246531318     12.010780000000
    35 pTyr_peptide_34       1 LIG      CE2        1     -0.065246531318     12.010780000000
    36 pTyr_peptide_35       1 LIG      CZ         1      0.209126985122     12.010780000000
    37 pTyr_peptide_36       1 LIG      OH         1     -0.532034987162     15.999430000000
    38 pTyr_peptide_37       1 LIG      P          1      1.358432179739     30.973762200000
    39 pTyr_peptide_38       1 LIG      O1P        1     -0.931273156355     15.999430000000
    40 pTyr_peptide_39       1 LIG      O2P        1     -0.931273156355     15.999430000000
    41 pTyr_peptide_40       1 LIG      O3P        1     -0.931273156355     15.999430000000
    42 pTyr_peptide_41       1 LIG      N          1     -0.811253482054     14.006720000000
    43 pTyr_peptide_42       1 LIG      CA         1      0.112575194289     12.010780000000
    44 pTyr_peptide_43       1 LIG      C          1      0.675340360452     12.010780000000
    45 pTyr_peptide_44       1 LIG      O          1     -0.618716710757     15.999430000000
    46 pTyr_peptide_45       1 LIG      CB         1     -0.058663354765     12.010780000000
    47 pTyr_peptide_46       1 LIG      CG         1     -0.195699834774     12.010780000000
    48 pTyr_peptide_47       1 LIG      CD         1      0.917241996576     12.010780000000
    49 pTyr_peptide_48       1 LIG      OE1        1     -0.838193827818     15.999430000000
    50 pTyr_peptide_49       1 LIG      OE2        1     -0.838193827818     15.999430000000
    51 pTyr_peptide_50       1 LIG      N          1     -0.551339620303     14.006720000000
    52 pTyr_peptide_51       1 LIG      CA         1      0.046740642239     12.010780000000
    53 pTyr_peptide_52       1 LIG      C          1      0.645396000196     12.010780000000
    54 pTyr_peptide_53       1 LIG      O          1     -0.639351361941     15.999430000000
    55 pTyr_peptide_54       1 LIG      CB         1     -0.077381053518     12.010780000000
    56 pTyr_peptide_55       1 LIG      CG         1     -0.207261139105     12.010780000000
    57 pTyr_peptide_56       1 LIG      CD         1      0.917617744257     12.010780000000
    58 pTyr_peptide_57       1 LIG      OE1        1     -0.835359388541     15.999430000000
    59 pTyr_peptide_58       1 LIG      OE2        1     -0.835359388541     15.999430000000
    60 pTyr_peptide_59       1 LIG      N          1     -0.557554000567     14.006720000000
    61 pTyr_peptide_60       1 LIG      CA         1      0.036891324867     12.010780000000
    62 pTyr_peptide_61       1 LIG      C          1      0.663313037206     12.010780000000
    63 pTyr_peptide_62       1 LIG      O          1     -0.594042950819     15.999430000000
    64 pTyr_peptide_63       1 LIG      CB         1     -0.075193518351     12.010780000000
    65 pTyr_peptide_64       1 LIG      CG1        1     -0.089275443505     12.010780000000
    66 pTyr_peptide_65       1 LIG      CG2        1     -0.102395923386     12.010780000000
    67 pTyr_peptide_66       1 LIG      CD1        1     -0.096480095337     12.010780000000
    68 pTyr_peptide_67       1 LIG      N          1     -0.465543651532     14.006720000000
    69 pTyr_peptide_68       1 LIG      CA         1      0.042031703939     12.010780000000
    70 pTyr_peptide_69       1 LIG      C          1      0.651057308961     12.010780000000
    71 pTyr_peptide_70       1 LIG      O          1     -0.597525888632     15.999430000000
    72 pTyr_peptide_71       1 LIG      CB         1     -0.092889422129     12.010780000000
    73 pTyr_peptide_72       1 LIG      CG         1     -0.096338474701     12.010780000000
    74 pTyr_peptide_73       1 LIG      CD         1      0.091017669489     12.010780000000
    75 pTyr_peptide_74       1 LIG      N          1     -0.567407661627     14.006720000000
    76 pTyr_peptide_75       1 LIG      CA         1      0.034213079561     12.010780000000
    77 pTyr_peptide_76       1 LIG      C          1      0.652428513815     12.010780000000
    78 pTyr_peptide_77       1 LIG      O          1     -0.611407810400     15.999430000000
    79 pTyr_peptide_78       1 LIG      CB         1     -0.077876397918     12.010780000000
    80 pTyr_peptide_79       1 LIG      CG1        1     -0.089093515228     12.010780000000
    81 pTyr_peptide_80       1 LIG      CG2        1     -0.100630083631     12.010780000000
    82 pTyr_peptide_81       1 LIG      CD1        1     -0.096110829662     12.010780000000
    83 pTyr_peptide_82       1 LIG      N          1     -0.557793611239     14.006720000000
    84 pTyr_peptide_83       1 LIG      CA         1      0.022636257534     12.010780000000
    85 pTyr_peptide_84       1 LIG      C          1      0.644860571672     12.010780000000
    86 pTyr_peptide_85       1 LIG      O          1     -0.612358802508     15.999430000000
    87 pTyr_peptide_86       1 LIG      CB         1     -0.045090877961     12.010780000000
    88 pTyr_peptide_87       1 LIG      CG         1     -0.123928317378     12.010780000000
    89 pTyr_peptide_88       1 LIG      CD1        1     -0.087995597671     12.010780000000
    90 pTyr_peptide_89       1 LIG      CD2        1     -0.087995597671     12.010780000000
    91 pTyr_peptide_90       1 LIG      CE1        1     -0.180445232938     12.010780000000
    92 pTyr_peptide_91       1 LIG      CE2        1     -0.180445232938     12.010780000000
    93 pTyr_peptide_92       1 LIG      CZ         1      0.119945494880     12.010780000000
    94 pTyr_peptide_93       1 LIG      OH         1     -0.499818825673     15.999430000000
    95 pTyr_peptide_94       1 LIG      N          1     -0.550738507460     14.006720000000
    96 pTyr_peptide_95       1 LIG      CA         1      0.027722938408     12.010780000000
    97 pTyr_peptide_96       1 LIG      C          1      0.632485753347     12.010780000000
    98 pTyr_peptide_97       1 LIG      O          1     -0.601507955740     15.999430000000
    99 pTyr_peptide_98       1 LIG      CB         1     -0.095660740088     12.010780000000
   100 pTyr_peptide_99       1 LIG      CG         1     -0.077523404311     12.010780000000
   101 pTyr_peptide_100       1 LIG      CD1        1     -0.093604029666     12.010780000000
   102 pTyr_peptide_101       1 LIG      CD2        1     -0.093604029666     12.010780000000
   103 pTyr_peptide_102       1 LIG      C          1      0.654458290388     12.010780000000
   104 pTyr_peptide_103       1 LIG      O          1     -0.610317999075     15.999430000000
   105 pTyr_peptide_104       1 LIG      C          1     -0.180168190549     12.010780000000
   106 pTyr_peptide_105       1 LIG      N          1     -0.581921333025     14.006720000000
   107 pTyr_peptide_106       1 LIG      C          1      0.079058772375     12.010780000000
   108 pTyr_peptide_107       1 LIG      H          1      0.311535602857      1.007947000000
   109 pTyr_peptide_108       1 LIG      H          1      0.088345459153      1.007947000000
   110 pTyr_peptide_109       1 LIG      H          1      0.073085999538      1.007947000000
   111 pTyr_peptide_110       1 LIG      H          1      0.073085999538      1.007947000000
   112 pTyr_peptide_111       1 LIG      H          1      0.025107603942      1.007947000000
   113 pTyr_peptide_112       1 LIG      H          1      0.025107603942      1.007947000000
   114 pTyr_peptide_113       1 LIG      H          1      0.080772182395      1.007947000000
   115 pTyr_peptide_114       1 LIG      H          1      0.059202878226      1.007947000000
   116 pTyr_peptide_115       1 LIG      H          1      0.059202878226      1.007947000000
   117 pTyr_peptide_116       1 LIG      H          1      0.055642562409      1.007947000000
   118 pTyr_peptide_117       1 LIG      H          1      0.055642562409      1.007947000000
   119 pTyr_peptide_118       1 LIG      H          1      0.046986772169      1.007947000000
   120 pTyr_peptide_119       1 LIG      H          1      0.046986772169      1.007947000000
   121 pTyr_peptide_120       1 LIG      H          1      0.308636015703      1.007947000000
   122 pTyr_peptide_121       1 LIG      H          1      0.085366955449      1.007947000000
   123 pTyr_peptide_122       1 LIG      H          1      0.076437851836      1.007947000000
   124 pTyr_peptide_123       1 LIG      H          1      0.076437851836      1.007947000000
   125 pTyr_peptide_124       1 LIG      H          1      0.062218560328      1.007947000000
   126 pTyr_peptide_125       1 LIG      H          1      0.062218560328      1.007947000000
   127 pTyr_peptide_126       1 LIG      H          1      0.306657528926      1.007947000000
   128 pTyr_peptide_127       1 LIG      H          1      0.306657528926      1.007947000000
   129 pTyr_peptide_128       1 LIG      H          1      0.310944175769      1.007947000000
   130 pTyr_peptide_129       1 LIG      H          1      0.080589285542      1.007947000000
   131 pTyr_peptide_130       1 LIG      H          1      0.018484309737      1.007947000000
   132 pTyr_peptide_131       1 LIG      H          1      0.402404105713      1.007947000000
   133 pTyr_peptide_132       1 LIG      H          1      0.054067532022      1.007947000000
   134 pTyr_peptide_133       1 LIG      H          1      0.054067532022      1.007947000000
   135 pTyr_peptide_134       1 LIG      H          1      0.046445144762      1.007947000000
   136 pTyr_peptide_135       1 LIG      H          1      0.033810424109      1.007947000000
   137 pTyr_peptide_136       1 LIG      H          1      0.033810424109      1.007947000000
   138 pTyr_peptide_137       1 LIG      H          1      0.033810424109      1.007947000000
   139 pTyr_peptide_138       1 LIG      H          1      0.033810424109      1.007947000000
   140 pTyr_peptide_139       1 LIG      H          1      0.048100790431      1.007947000000
   141 pTyr_peptide_140       1 LIG      H          1      0.048100790431      1.007947000000
   142 pTyr_peptide_141       1 LIG      H          1      0.048100790431      1.007947000000
   143 pTyr_peptide_142       1 LIG      H          1      0.048100790431      1.007947000000
   144 pTyr_peptide_143       1 LIG      H          1      0.041933013548      1.007947000000
   145 pTyr_peptide_144       1 LIG      H          1      0.370024716903      1.007947000000
   146 pTyr_peptide_145       1 LIG      H          1      0.063099762847      1.007947000000
   147 pTyr_peptide_146       1 LIG      H          1      0.061496967872      1.007947000000
   148 pTyr_peptide_147       1 LIG      H          1      0.061496967872      1.007947000000
   149 pTyr_peptide_148       1 LIG      H          1      0.024794379671      1.007947000000
   150 pTyr_peptide_149       1 LIG      H          1      0.024794379671      1.007947000000
   151 pTyr_peptide_150       1 LIG      H          1      0.317673033525      1.007947000000
   152 pTyr_peptide_151       1 LIG      H          1      0.101771234025      1.007947000000
   153 pTyr_peptide_152       1 LIG      H          1      0.066585949113      1.007947000000
   154 pTyr_peptide_153       1 LIG      H          1      0.066585949113      1.007947000000
   155 pTyr_peptide_154       1 LIG      H          1      0.025407456283      1.007947000000
   156 pTyr_peptide_155       1 LIG      H          1      0.025407456283      1.007947000000
   157 pTyr_peptide_156       1 LIG      H          1      0.319406813432      1.007947000000
   158 pTyr_peptide_157       1 LIG      H          1      0.087239465167      1.007947000000
   159 pTyr_peptide_158       1 LIG      H          1      0.060583098282      1.007947000000
   160 pTyr_peptide_159       1 LIG      H          1      0.041379636575      1.007947000000
   161 pTyr_peptide_160       1 LIG      H          1      0.041379636575      1.007947000000
   162 pTyr_peptide_161       1 LIG      H          1      0.038313018580      1.007947000000
   163 pTyr_peptide_162       1 LIG      H          1      0.038313018580      1.007947000000
   164 pTyr_peptide_163       1 LIG      H          1      0.038313018580      1.007947000000
   165 pTyr_peptide_164       1 LIG      H          1      0.032615693708      1.007947000000
   166 pTyr_peptide_165       1 LIG      H          1      0.032615693708      1.007947000000
   167 pTyr_peptide_166       1 LIG      H          1      0.032615693708      1.007947000000
   168 pTyr_peptide_167       1 LIG      H          1      0.080715170552      1.007947000000
   169 pTyr_peptide_168       1 LIG      H          1      0.059202878226      1.007947000000
   170 pTyr_peptide_169       1 LIG      H          1      0.059202878226      1.007947000000
   171 pTyr_peptide_170       1 LIG      H          1      0.055642562409      1.007947000000
   172 pTyr_peptide_171       1 LIG      H          1      0.055642562409      1.007947000000
   173 pTyr_peptide_172       1 LIG      H          1      0.046734242190      1.007947000000
   174 pTyr_peptide_173       1 LIG      H          1      0.046734242190      1.007947000000
   175 pTyr_peptide_174       1 LIG      H          1      0.312957263042      1.007947000000
   176 pTyr_peptide_175       1 LIG      H          1      0.090243032624      1.007947000000
   177 pTyr_peptide_176       1 LIG      H          1      0.060206192036      1.007947000000
   178 pTyr_peptide_177       1 LIG      H          1      0.041425684889      1.007947000000
   179 pTyr_peptide_178       1 LIG      H          1      0.041425684889      1.007947000000
   180 pTyr_peptide_179       1 LIG      H          1      0.038209902544      1.007947000000
   181 pTyr_peptide_180       1 LIG      H          1      0.038209902544      1.007947000000
   182 pTyr_peptide_181       1 LIG      H          1      0.038209902544      1.007947000000
   183 pTyr_peptide_182       1 LIG      H          1      0.032422682692      1.007947000000
   184 pTyr_peptide_183       1 LIG      H          1      0.032422682692      1.007947000000
   185 pTyr_peptide_184       1 LIG      H          1      0.032422682692      1.007947000000
   186 pTyr_peptide_185       1 LIG      H          1      0.314686662008      1.007947000000
   187 pTyr_peptide_186       1 LIG      H          1      0.096676869740      1.007947000000
   188 pTyr_peptide_187       1 LIG      H          1      0.062394982626      1.007947000000
   189 pTyr_peptide_188       1 LIG      H          1      0.062394982626      1.007947000000
   190 pTyr_peptide_189       1 LIG      H          1      0.131399786522      1.007947000000
   191 pTyr_peptide_190       1 LIG      H          1      0.131399786522      1.007947000000
   192 pTyr_peptide_191       1 LIG      H          1      0.138703069140      1.007947000000
   193 pTyr_peptide_192       1 LIG      H          1      0.138703069140      1.007947000000
   194 pTyr_peptide_193       1 LIG      H          1      0.416656947185      1.007947000000
   195 pTyr_peptide_194       1 LIG      H          1      0.315300649454      1.007947000000
   196 pTyr_peptide_195       1 LIG      H          1      0.086834116329      1.007947000000
   197 pTyr_peptide_196       1 LIG      H          1      0.055255962957      1.007947000000
   198 pTyr_peptide_197       1 LIG      H          1      0.055255962957      1.007947000000
   199 pTyr_peptide_198       1 LIG      H          1      0.049844870766      1.007947000000
   200 pTyr_peptide_199       1 LIG      H          1      0.032987652768      1.007947000000
   201 pTyr_peptide_200       1 LIG      H          1      0.032987652768      1.007947000000
   202 pTyr_peptide_201       1 LIG      H          1      0.032987652768      1.007947000000
   203 pTyr_peptide_202       1 LIG      H          1      0.032987652768      1.007947000000
   204 pTyr_peptide_203       1 LIG      H          1      0.032987652768      1.007947000000
   205 pTyr_peptide_204       1 LIG      H          1      0.032987652768      1.007947000000
   206 pTyr_peptide_205       1 LIG      H          1      0.063029459168      1.007947000000
   207 pTyr_peptide_206       1 LIG      H          1      0.063029459168      1.007947000000
   208 pTyr_peptide_207       1 LIG      H          1      0.063029459168      1.007947000000
   209 pTyr_peptide_208       1 LIG      H          1      0.309523171236      1.007947000000
   210 pTyr_peptide_209       1 LIG      H          1      0.042836720546      1.007947000000
   211 pTyr_peptide_210       1 LIG      H          1      0.042836720546      1.007947000000
   212 pTyr_peptide_211       1 LIG      H          1      0.042836720546      1.007947000000

[ pairs ]
;ai    aj   funct
    60	    68	     1
     3	   108	     1
     3	   110	     1
    30	   136	     1
     3	     6	     1
    68	   169	     1
     3	   111	     1
    30	   137	     1
    68	   170	     1
    83	   176	     1
    30	   138	     1
    30	    34	     1
    45	    46	     1
    68	   171	     1
    95	   197	     1
    30	   139	     1
    30	    35	     1
    68	   172	     1
    95	   198	     1
    15	   114	     1
   116	   117	     1
   170	   171	     1
    27	   135	     1
    44	    47	     1
   116	   118	     1
   143	   144	     1
   170	   172	     1
    27	    32	     1
   197	   199	     1
    27	    33	     1
    80	   176	     1
    12	   115	     1
    14	   119	     1
   140	   144	     1
    43	    52	     1
    96	   209	     1
    12	   116	     1
    14	   120	     1
    67	   159	     1
    14	    17	     1
    28	   146	     1
    11	   118	     1
    85	    88	     1
   154	   155	     1
    11	   119	     1
   154	   156	     1
    11	   120	     1
    11	   121	     1
    55	    59	     1
    55	    60	     1
    11	    18	     1
    28	   133	     1
    28	   134	     1
    28	    31	     1
    72	    75	     1
    84	    96	     1
    42	    45	     1
   195	   196	     1
    98	   107	     1
    86	    87	     1
    37	   141	     1
    37	   142	     1
    37	   143	     1
    95	   106	     1
    83	    86	     1
   110	   112	     1
   110	   113	     1
    49	   149	     1
    24	   125	     1
    49	   150	     1
    64	   157	     1
   106	   196	     1
   151	   152	     1
   124	   125	     1
    78	   186	     1
   124	   126	     1
    96	   101	     1
    36	   136	     1
    90	   190	     1
    96	   102	     1
    10	   109	     1
   111	   112	     1
    75	   168	     1
    28	    44	     1
    62	   168	     1
    81	    82	     1
    77	   175	     1
   108	   109	     1
   135	   136	     1
     9	   112	     1
    77	   177	     1
   137	   141	     1
   135	   137	     1
     9	   113	     1
   135	   138	     1
     7	   110	     1
   135	   139	     1
     7	   111	     1
   104	   206	     1
    76	   179	     1
   161	   167	     1
    76	   180	     1
    53	    56	     1
    76	   181	     1
    76	   182	     1
   122	   123	     1
   176	   177	     1
    21	   121	     1
   122	   124	     1
   178	   183	     1
    61	   160	     1
   178	   184	     1
    61	   161	     1
    88	   187	     1
    52	    61	     1
    20	    21	     1
    87	   191	     1
    35	   135	     1
     5	   103	     1
   102	   198	     1
    64	    68	     1
   100	   196	     1
   102	   200	     1
    19	   130	     1
   187	   188	     1
   102	   201	     1
   133	   135	     1
   187	   189	     1
    32	   133	     1
   102	   202	     1
    19	    28	     1
    32	   134	     1
    19	    30	     1
   101	   203	     1
    78	    79	     1
    99	   200	     1
    63	    74	     1
   101	   204	     1
    99	   201	     1
   101	   205	     1
    47	   146	     1
   105	   108	     1
   147	   149	     1
    31	   140	     1
    33	   144	     1
    75	    78	     1
    75	    80	     1
    44	   145	     1
    75	    81	     1
    77	    85	     1
    43	   149	     1
    58	   155	     1
    43	   150	     1
    58	   156	     1
    43	   151	     1
    89	    92	     1
    85	   186	     1
    61	    67	     1
    17	   123	     1
    85	   188	     1
    17	   124	     1
    17	    20	     1
    61	    69	     1
     2	    16	     1
    17	    22	     1
   159	   161	     1
   157	   158	     1
   159	   162	     1
    86	   195	     1
   130	   131	     1
   159	   163	     1
   159	   164	     1
     2	   104	     1
   130	   133	     1
     4	   109	     1
     4	     5	     1
   130	   134	     1
     2	   105	     1
   198	   199	     1
    69	   171	     1
    71	   175	     1
     1	     4	     1
    16	   114	     1
    16	   115	     1
    56	   152	     1
     1	   110	     1
     1	     6	     1
     3	   114	     1
    16	   116	     1
    99	   106	     1
     3	    12	     1
   131	   145	     1
   114	   115	     1
   114	   116	     1
    68	   158	     1
    29	   145	     1
    44	    53	     1
    97	   210	     1
    80	   180	     1
    97	   211	     1
    80	   181	     1
    44	    55	     1
    95	   187	     1
    80	   182	     1
    30	   129	     1
    33	    37	     1
    12	    15	     1
    12	    16	     1
    29	   130	     1
    97	   195	     1
    12	   122	     1
    94	   192	     1
    29	    30	     1
    94	   193	     1
    96	   199	     1
    26	   131	     1
    85	    97	     1
    26	   133	     1
    26	    29	     1
    81	   176	     1
    26	   134	     1
    70	    73	     1
   168	   169	     1
    81	   178	     1
    70	    74	     1
   168	   170	     1
    13	   114	     1
    81	   179	     1
    42	    47	     1
   141	   144	     1
    69	    76	     1
    13	    14	     1
    42	    51	     1
   138	   142	     1
   138	   143	     1
    38	   144	     1
    53	   151	     1
    53	   153	     1
    54	    55	     1
   209	   210	     1
    50	   149	     1
   209	   211	     1
    50	   150	     1
    83	    88	     1
   209	   212	     1
    52	   155	     1
    52	   156	     1
    65	   158	     1
    24	   126	     1
    52	   157	     1
    79	   183	     1
   179	   183	     1
    79	   184	     1
   179	   184	     1
    79	   185	     1
   179	   185	     1
    98	    99	     1
   152	   153	     1
   152	   154	     1
    97	   100	     1
    95	    98	     1
    64	   165	     1
    36	   137	     1
    36	   138	     1
    29	    43	     1
    36	   139	     1
    51	   146	     1
    96	   107	     1
   111	   113	     1
    78	   176	     1
   109	   110	     1
    28	    46	     1
    26	    42	     1
   109	   111	     1
    10	   115	     1
    48	   147	     1
    10	   116	     1
    62	   173	     1
    62	   174	     1
    75	   177	     1
   104	   207	     1
   104	   208	     1
    62	   157	     1
   177	   178	     1
    22	   122	     1
    62	   159	     1
    76	   186	     1
    89	   188	     1
    53	    62	     1
    89	   189	     1
    91	   193	     1
   178	   185	     1
    91	   194	     1
    61	   162	     1
    61	   163	     1
    61	   164	     1
    21	    24	     1
    88	   192	     1
    88	   193	     1
    20	   129	     1
   190	   192	     1
   134	   135	     1
    20	    27	     1
   136	   140	     1
     8	   112	     1
   136	   141	     1
    35	   140	     1
     5	   108	     1
   160	   165	     1
   160	   166	     1
    32	   138	     1
    34	   142	     1
     5	     8	     1
    51	    54	     1
    32	   139	     1
    32	    35	     1
    34	   143	     1
   148	   149	     1
    99	   202	     1
    51	    56	     1
     1	   206	     1
    99	   203	     1
    99	   204	     1
    78	    84	     1
    99	   205	     1
   147	   150	     1
    60	   152	     1
    31	   141	     1
    45	   146	     1
    19	   121	     1
   145	   146	     1
    31	   142	     1
    60	    66	     1
    31	   143	     1
    19	   123	     1
    19	   124	     1
    44	   147	     1
    75	    83	     1
    77	    87	     1
    44	   148	     1
    59	   155	     1
    59	   156	     1
    63	    64	     1
    18	   125	     1
    44	   152	     1
    90	    91	     1
    18	   126	     1
   101	   197	     1
    18	    23	     1
    62	    65	     1
    33	   133	     1
    62	    66	     1
    31	   130	     1
    33	   134	     1
    18	   129	     1
    89	    94	     1
    33	   136	     1
    73	   168	     1
    85	   189	     1
    61	    74	     1
    17	    26	     1
    70	   169	     1
    72	   173	     1
    70	   170	     1
    72	   174	     1
    76	    82	     1
    84	   195	     1
   199	   200	     1
   103	   109	     1
   199	   201	     1
   199	   202	     1
   199	   203	     1
    17	   114	     1
    69	   172	     1
    69	   173	     1
    57	   153	     1
     4	    11	     1
    69	   174	     1
    57	   154	     1
    69	   175	     1
   117	   119	     1
     1	   111	     1
   171	   173	     1
   117	   120	     1
   171	   174	     1
    86	   187	     1
   115	   117	     1
    54	   152	     1
    42	   130	     1
    45	    52	     1
     1	    10	     1
     3	    14	     1
    98	   209	     1
     3	   119	     1
     3	    15	     1
    87	    91	     1
     3	   120	     1
    87	    92	     1
    97	   212	     1
    60	    63	     1
    34	    38	     1
   158	   159	     1
     3	   103	     1
    83	   188	     1
   131	   132	     1
    27	   145	     1
    30	   131	     1
    31	    36	     1
    97	   197	     1
    12	    19	     1
    97	   198	     1
    12	    21	     1
    27	   132	     1
    46	    49	     1
    46	    50	     1
    82	   177	     1
    46	    51	     1
    85	    99	     1
   169	   171	     1
   196	   197	     1
    26	    31	     1
   142	   144	     1
    43	    48	     1
   169	   172	     1
   196	   198	     1
    70	    77	     1
   139	   142	     1
   139	   143	     1
    70	    79	     1
    26	   122	     1
    11	   117	     1
    13	   121	     1
    13	    18	     1
    28	   129	     1
    53	   154	     1
    55	    58	     1
   153	   155	     1
    84	    89	     1
    25	   125	     1
   153	   156	     1
    84	    90	     1
    93	   190	     1
    25	   126	     1
    93	   191	     1
    25	   127	     1
    53	   158	     1
    86	    96	     1
    25	   128	     1
    54	    61	     1
    71	    72	     1
    65	   162	     1
    83	    95	     1
    65	   163	     1
    65	   164	     1
    71	    76	     1
    68	    71	     1
    30	    42	     1
    64	   166	     1
    95	   100	     1
    64	   167	     1
    68	    75	     1
    37	   140	     1
    79	   175	     1
    27	    43	     1
    66	   158	     1
    51	   153	     1
    51	   154	     1
    66	   160	     1
    66	   161	     1
    48	   148	     1
    10	   117	     1
    10	    13	     1
    10	   118	     1
    63	   158	     1
    10	    17	     1
   123	   125	     1
   177	   179	     1
    90	   188	     1
   123	   126	     1
   177	   180	     1
    77	   187	     1
    92	   192	     1
    90	   189	     1
   177	   181	     1
    92	   194	     1
   177	   182	     1
    22	   127	     1
    53	    64	     1
    22	   128	     1
    89	   191	     1
    21	    25	     1
    74	   168	     1
    21	    26	     1
    74	   169	     1
   191	   193	     1
   137	   140	     1
    74	   170	     1
   161	   165	     1
     6	   109	     1
     8	   113	     1
   161	   166	     1
    76	   178	     1
    35	   141	     1
   160	   167	     1
    23	   123	     1
    23	   124	     1
    52	    57	     1
    79	    83	     1
     5	     9	     1
   121	   122	     1
   175	   176	     1
     5	    10	     1
   148	   150	     1
     1	   207	     1
     1	   208	     1
    20	   122	     1
    87	   186	     1
    32	   144	     1
    51	    60	     1
    66	    67	     1
    45	   151	     1
    87	   190	     1
    19	    22	     1
   102	   197	     1
    60	   159	     1
    36	    39	     1
    36	    40	     1
    36	    41	     1
    34	   135	     1
   101	   198	     1
    90	    94	     1
    99	   195	     1
    63	    69	     1
   186	   187	     1
    18	    27	     1
    33	   137	     1
    62	    70	     1
    33	    34	     1
    62	    72	     1
    62	    73	     1
    77	    80	     1
    46	   145	     1
    77	    81	     1
   104	   108	     1
   146	   147	     1
    85	   196	     1
   146	   148	     1
    76	    84	     1
   199	   204	     1
   199	   205	     1
   118	   119	     1
   172	   173	     1
     2	     7	     1
    70	   176	     1
   118	   120	     1
     2	   112	     1
    42	   147	     1
   172	   174	     1
    42	   148	     1
     2	   113	     1
    55	   151	     1
    43	   131	     1
     2	    11	     1
     4	    16	     1
   115	   118	     1
    88	    93	     1
    42	   132	     1
    35	    38	     1
   159	   160	     1
    54	   157	     1
    87	    95	     1
    71	   168	     1
    83	   189	     1
    60	    65	     1
    98	   196	     1
   129	   130	     1
    32	    37	     1

[ bonds ]
;ai    aj   funct r k
     1      2      1      0.145009858627  294600.927775905351 
     1    103      1      0.138189777668  412347.817359175009 
     1    108      1      0.101948186503  422704.914414302446 
     2      3      1      0.152343595833  275676.608549002965 
     2      5      1      0.152190126495  221435.259290285845 
     2    109      1      0.109389949263  309655.084322414012 
     3      4      1      0.122519838622  487602.327766196802 
     3     10      1      0.138189777668  412347.817359175009 
     5      6      1      0.152190126495  221435.259290285845 
     5    110      1      0.109389949263  309655.084322414012 
     5    111      1      0.109389949263  309655.084322414012 
     6      7      1      0.152343595833  275676.608549002965 
     6    112      1      0.109389949263  309655.084322414012 
     6    113      1      0.109389949263  309655.084322414012 
     7      8      1      0.125657029984  483214.205774865637 
     7      9      1      0.125657029984  483214.205774865637 
    10     11      1      0.145009858627  294600.927775905351 
    10     16      1      0.145009858627  294600.927775905351 
    11     12      1      0.152343595833  275676.608549002965 
    11     14      1      0.152190126495  221435.259290285845 
    11    114      1      0.109389949263  309655.084322414012 
    12     13      1      0.122519838622  487602.327766196802 
    12     17      1      0.138189777668  412347.817359175009 
    14     15      1      0.152190126495  221435.259290285845 
    14    115      1      0.109389949263  309655.084322414012 
    14    116      1      0.109389949263  309655.084322414012 
    15     16      1      0.152190126495  221435.259290285845 
    15    117      1      0.109389949263  309655.084322414012 
    15    118      1      0.109389949263  309655.084322414012 
    16    119      1      0.109389949263  309655.084322414012 
    16    120      1      0.109389949263  309655.084322414012 
    17     18      1      0.145009858627  294600.927775905351 
    17    121      1      0.101948186503  422704.914414302446 
    18     19      1      0.152343595833  275676.608549002965 
    18     21      1      0.152190126495  221435.259290285845 
    18    122      1      0.109389949263  309655.084322414012 
    19     20      1      0.122519838622  487602.327766196802 
    19     26      1      0.138189777668  412347.817359175009 
    21     22      1      0.152190126495  221435.259290285845 
    21    123      1      0.109389949263  309655.084322414012 
    21    124      1      0.109389949263  309655.084322414012 
    22     23      1      0.152343595833  275676.608549002965 
    22    125      1      0.109389949263  309655.084322414012 
    22    126      1      0.109389949263  309655.084322414012 
    23     24      1      0.138189777668  412347.817359175009 
    23     25      1      0.122519838622  487602.327766196802 
    24    127      1      0.101948186503  422704.914414302446 
    24    128      1      0.101948186503  422704.914414302446 
    26     27      1      0.145009858627  294600.927775905351 
    26    129      1      0.101948186503  422704.914414302446 
    27     28      1      0.152190126495  221435.259290285845 
    27     30      1      0.152190126495  221435.259290285845 
    27    130      1      0.109389949263  309655.084322414012 
    28     29      1      0.142734395872  276118.879748549080 
    28     42      1      0.146476295726  306553.707217167306 
    28    131      1      0.109389949263  309655.084322414012 
    29    132      1      0.097167633126  454823.212172136817 
    30     31      1      0.152190126495  221435.259290285845 
    30    133      1      0.109389949263  309655.084322414012 
    30    134      1      0.109389949263  309655.084322414012 
    31     32      1      0.152190126495  221435.259290285845 
    31     33      1      0.152190126495  221435.259290285845 
    31    135      1      0.109389949263  309655.084322414012 
    32     34      1      0.152190126495  221435.259290285845 
    32    136      1      0.109389949263  309655.084322414012 
    32    137      1      0.109389949263  309655.084322414012 
    33     35      1      0.152190126495  221435.259290285845 
    33    138      1      0.109389949263  309655.084322414012 
    33    139      1      0.109389949263  309655.084322414012 
    34     36      1      0.152190126495  221435.259290285845 
    34    140      1      0.109389949263  309655.084322414012 
    34    141      1      0.109389949263  309655.084322414012 
    35     36      1      0.152190126495  221435.259290285845 
    35    142      1      0.109389949263  309655.084322414012 
    35    143      1      0.109389949263  309655.084322414012 
    36     37      1      0.142589505373  306888.771877388994 
    36    144      1      0.109389949263  309655.084322414012 
    37     38      1      0.164408033210  227238.415703448671 
    38     39      1      0.149099106101  462981.098502852023 
    38     40      1      0.149099106101  462981.098502852023 
    38     41      1      0.149099106101  462981.098502852023 
    42     43      1      0.146476295726  306553.707217167306 
    42    145      1      0.101948186503  422704.914414302446 
    43     44      1      0.152343595833  275676.608549002965 
    43     46      1      0.152190126495  221435.259290285845 
    43    146      1      0.109389949263  309655.084322414012 
    44     45      1      0.122519838622  487602.327766196802 
    44     51      1      0.138189777668  412347.817359175009 
    46     47      1      0.152190126495  221435.259290285845 
    46    147      1      0.109389949263  309655.084322414012 
    46    148      1      0.109389949263  309655.084322414012 
    47     48      1      0.152343595833  275676.608549002965 
    47    149      1      0.109389949263  309655.084322414012 
    47    150      1      0.109389949263  309655.084322414012 
    48     49      1      0.125657029984  483214.205774865637 
    48     50      1      0.125657029984  483214.205774865637 
    51     52      1      0.145009858627  294600.927775905351 
    51    151      1      0.101948186503  422704.914414302446 
    52     53      1      0.152343595833  275676.608549002965 
    52     55      1      0.152190126495  221435.259290285845 
    52    152      1      0.109389949263  309655.084322414012 
    53     54      1      0.122519838622  487602.327766196802 
    53     60      1      0.138189777668  412347.817359175009 
    55     56      1      0.152190126495  221435.259290285845 
    55    153      1      0.109389949263  309655.084322414012 
    55    154      1      0.109389949263  309655.084322414012 
    56     57      1      0.152343595833  275676.608549002965 
    56    155      1      0.109389949263  309655.084322414012 
    56    156      1      0.109389949263  309655.084322414012 
    57     58      1      0.125657029984  483214.205774865637 
    57     59      1      0.125657029984  483214.205774865637 
    60     61      1      0.145009858627  294600.927775905351 
    60    157      1      0.101948186503  422704.914414302446 
    61     62      1      0.152343595833  275676.608549002965 
    61     64      1      0.152190126495  221435.259290285845 
    61    158      1      0.109389949263  309655.084322414012 
    62     63      1      0.122519838622  487602.327766196802 
    62     68      1      0.138189777668  412347.817359175009 
    64     65      1      0.152190126495  221435.259290285845 
    64     66      1      0.152190126495  221435.259290285845 
    64    159      1      0.109389949263  309655.084322414012 
    65     67      1      0.152190126495  221435.259290285845 
    65    160      1      0.109389949263  309655.084322414012 
    65    161      1      0.109389949263  309655.084322414012 
    66    162      1      0.109389949263  309655.084322414012 
    66    163      1      0.109389949263  309655.084322414012 
    66    164      1      0.109389949263  309655.084322414012 
    67    165      1      0.109389949263  309655.084322414012 
    67    166      1      0.109389949263  309655.084322414012 
    67    167      1      0.109389949263  309655.084322414012 
    68     69      1      0.145009858627  294600.927775905351 
    68     74      1      0.145009858627  294600.927775905351 
    69     70      1      0.152343595833  275676.608549002965 
    69     72      1      0.152190126495  221435.259290285845 
    69    168      1      0.109389949263  309655.084322414012 
    70     71      1      0.122519838622  487602.327766196802 
    70     75      1      0.138189777668  412347.817359175009 
    72     73      1      0.152190126495  221435.259290285845 
    72    169      1      0.109389949263  309655.084322414012 
    72    170      1      0.109389949263  309655.084322414012 
    73     74      1      0.152190126495  221435.259290285845 
    73    171      1      0.109389949263  309655.084322414012 
    73    172      1      0.109389949263  309655.084322414012 
    74    173      1      0.109389949263  309655.084322414012 
    74    174      1      0.109389949263  309655.084322414012 
    75     76      1      0.145009858627  294600.927775905351 
    75    175      1      0.101948186503  422704.914414302446 
    76     77      1      0.152343595833  275676.608549002965 
    76     79      1      0.152190126495  221435.259290285845 
    76    176      1      0.109389949263  309655.084322414012 
    77     78      1      0.122519838622  487602.327766196802 
    77     83      1      0.138189777668  412347.817359175009 
    79     80      1      0.152190126495  221435.259290285845 
    79     81      1      0.152190126495  221435.259290285845 
    79    177      1      0.109389949263  309655.084322414012 
    80     82      1      0.152190126495  221435.259290285845 
    80    178      1      0.109389949263  309655.084322414012 
    80    179      1      0.109389949263  309655.084322414012 
    81    180      1      0.109389949263  309655.084322414012 
    81    181      1      0.109389949263  309655.084322414012 
    81    182      1      0.109389949263  309655.084322414012 
    82    183      1      0.109389949263  309655.084322414012 
    82    184      1      0.109389949263  309655.084322414012 
    82    185      1      0.109389949263  309655.084322414012 
    83     84      1      0.145009858627  294600.927775905351 
    83    186      1      0.101948186503  422704.914414302446 
    84     85      1      0.152343595833  275676.608549002965 
    84     87      1      0.152190126495  221435.259290285845 
    84    187      1      0.109389949263  309655.084322414012 
    85     86      1      0.122519838622  487602.327766196802 
    85     95      1      0.138189777668  412347.817359175009 
    87     88      1      0.149864681646  242452.869388089370 
    87    188      1      0.109389949263  309655.084322414012 
    87    189      1      0.109389949263  309655.084322414012 
    88     89      1      0.138719322718  301905.092578520998 
    88     90      1      0.138719322718  301905.092578520998 
    89     91      1      0.138719322718  301905.092578520998 
    89    190      1      0.108535849592  332422.631675317942 
    90     92      1      0.138719322718  301905.092578520998 
    90    191      1      0.108535849592  332422.631675317942 
    91     93      1      0.138719322718  301905.092578520998 
    91    192      1      0.108535849592  332422.631675317942 
    92     93      1      0.138719322718  301905.092578520998 
    92    193      1      0.108535849592  332422.631675317942 
    93     94      1      0.136974518231  322804.352558720217 
    94    194      1      0.097167633126  454823.212172136817 
    95     96      1      0.145009858627  294600.927775905351 
    95    195      1      0.101948186503  422704.914414302446 
    96     97      1      0.152343595833  275676.608549002965 
    96     99      1      0.152190126495  221435.259290285845 
    96    196      1      0.109389949263  309655.084322414012 
    97     98      1      0.122519838622  487602.327766196802 
    97    106      1      0.138189777668  412347.817359175009 
    99    100      1      0.152190126495  221435.259290285845 
    99    197      1      0.109389949263  309655.084322414012 
    99    198      1      0.109389949263  309655.084322414012 
   100    101      1      0.152190126495  221435.259290285845 
   100    102      1      0.152190126495  221435.259290285845 
   100    199      1      0.109389949263  309655.084322414012 
   101    200      1      0.109389949263  309655.084322414012 
   101    201      1      0.109389949263  309655.084322414012 
   101    202      1      0.109389949263  309655.084322414012 
   102    203      1      0.109389949263  309655.084322414012 
   102    204      1      0.109389949263  309655.084322414012 
   102    205      1      0.109389949263  309655.084322414012 
   103    104      1      0.122519838622  487602.327766196802 
   103    105      1      0.152343595833  275676.608549002965 
   105    206      1      0.109389949263  309655.084322414012 
   105    207      1      0.109389949263  309655.084322414012 
   105    208      1      0.109389949263  309655.084322414012 
   106    107      1      0.145009858627  294600.927775905351 
   106    209      1      0.101948186503  422704.914414302446 
   107    210      1      0.109389949263  309655.084322414012 
   107    211      1      0.109389949263  309655.084322414012 
   107    212      1      0.109389949263  309655.084322414012 

[ angles ]
;ai    aj   ak   funct theta  k
     1      2      3      1     116.547586263400     445.222086509286 
     1      2      5      1     116.547586263400     445.222086509286 
     1      2    109      1     116.547586263400     445.222086509286 
     1    103    104      1     126.806242045100     484.492885493347 
     1    103    105      1     126.806242045100     484.492885493347 
     2      1    103      1     117.346557051400     463.769802376852 
     2      1    108      1     115.507132767400     530.901282784327 
     2      3      4      1     126.806242045100     484.492885493347 
     2      3     10      1     126.806242045100     484.492885493347 
     2      5      6      1     116.547586263400     445.222086509286 
     2      5    110      1     116.547586263400     445.222086509286 
     2      5    111      1     116.547586263400     445.222086509286 
     3      2      5      1     116.547586263400     445.222086509286 
     3      2    109      1     116.547586263400     445.222086509286 
     3     10     11      1     117.346557051400     463.769802376852 
     3     10     16      1     117.346557051400     463.769802376852 
     4      3     10      1     126.806242045100     484.492885493347 
     5      2    109      1     116.547586263400     445.222086509286 
     5      6      7      1     116.547586263400     445.222086509286 
     5      6    112      1     116.547586263400     445.222086509286 
     5      6    113      1     116.547586263400     445.222086509286 
     6      5    110      1     116.547586263400     445.222086509286 
     6      5    111      1     116.547586263400     445.222086509286 
     6      7      8      1     126.806242045100     484.492885493347 
     6      7      9      1     126.806242045100     484.492885493347 
     7      6    112      1     116.547586263400     445.222086509286 
     7      6    113      1     116.547586263400     445.222086509286 
     8      7      9      1     127.469141619100    1685.413543333009 
    10     11     12      1     116.547586263400     445.222086509286 
    10     11     14      1     116.547586263400     445.222086509286 
    10     11    114      1     116.547586263400     445.222086509286 
    10     16     15      1     116.547586263400     445.222086509286 
    10     16    119      1     116.547586263400     445.222086509286 
    10     16    120      1     116.547586263400     445.222086509286 
    11     10     16      1     117.346557051400     463.769802376852 
    11     12     13      1     126.806242045100     484.492885493347 
    11     12     17      1     126.806242045100     484.492885493347 
    11     14     15      1     116.547586263400     445.222086509286 
    11     14    115      1     116.547586263400     445.222086509286 
    11     14    116      1     116.547586263400     445.222086509286 
    12     11     14      1     116.547586263400     445.222086509286 
    12     11    114      1     116.547586263400     445.222086509286 
    12     17     18      1     117.346557051400     463.769802376852 
    12     17    121      1     115.507132767400     530.901282784327 
    13     12     17      1     126.806242045100     484.492885493347 
    14     11    114      1     116.547586263400     445.222086509286 
    14     15     16      1     116.547586263400     445.222086509286 
    14     15    117      1     116.547586263400     445.222086509286 
    14     15    118      1     116.547586263400     445.222086509286 
    15     14    115      1     116.547586263400     445.222086509286 
    15     14    116      1     116.547586263400     445.222086509286 
    15     16    119      1     116.547586263400     445.222086509286 
    15     16    120      1     116.547586263400     445.222086509286 
    16     15    117      1     116.547586263400     445.222086509286 
    16     15    118      1     116.547586263400     445.222086509286 
    17     18     19      1     116.547586263400     445.222086509286 
    17     18     21      1     116.547586263400     445.222086509286 
    17     18    122      1     116.547586263400     445.222086509286 
    18     17    121      1     115.507132767400     530.901282784327 
    18     19     20      1     126.806242045100     484.492885493347 
    18     19     26      1     126.806242045100     484.492885493347 
    18     21     22      1     116.547586263400     445.222086509286 
    18     21    123      1     116.547586263400     445.222086509286 
    18     21    124      1     116.547586263400     445.222086509286 
    19     18     21      1     116.547586263400     445.222086509286 
    19     18    122      1     116.547586263400     445.222086509286 
    19     26     27      1     117.346557051400     463.769802376852 
    19     26    129      1     115.507132767400     530.901282784327 
    20     19     26      1     126.806242045100     484.492885493347 
    21     18    122      1     116.547586263400     445.222086509286 
    21     22     23      1     116.547586263400     445.222086509286 
    21     22    125      1     116.547586263400     445.222086509286 
    21     22    126      1     116.547586263400     445.222086509286 
    22     21    123      1     116.547586263400     445.222086509286 
    22     21    124      1     116.547586263400     445.222086509286 
    22     23     24      1     126.806242045100     484.492885493347 
    22     23     25      1     126.806242045100     484.492885493347 
    23     22    125      1     116.547586263400     445.222086509286 
    23     22    126      1     116.547586263400     445.222086509286 
    23     24    127      1     115.507132767400     530.901282784327 
    23     24    128      1     115.507132767400     530.901282784327 
    24     23     25      1     126.806242045100     484.492885493347 
    26     27     28      1     116.547586263400     445.222086509286 
    26     27     30      1     116.547586263400     445.222086509286 
    26     27    130      1     116.547586263400     445.222086509286 
    27     26    129      1     115.507132767400     530.901282784327 
    27     28     29      1     116.547586263400     445.222086509286 
    27     28     42      1     116.547586263400     445.222086509286 
    27     28    131      1     116.547586263400     445.222086509286 
    27     30     31      1     116.547586263400     445.222086509286 
    27     30    133      1     116.547586263400     445.222086509286 
    27     30    134      1     116.547586263400     445.222086509286 
    28     27     30      1     116.547586263400     445.222086509286 
    28     27    130      1     116.547586263400     445.222086509286 
    28     29    132      1     110.353880618100     544.678275491328 
    28     42     43      1     114.841459999400     410.165804547735 
    28     42    145      1     110.920219630000     791.028080064996 
    29     28     42      1     116.547586263400     445.222086509286 
    29     28    131      1     116.547586263400     445.222086509286 
    30     27    130      1     116.547586263400     445.222086509286 
    30     31     32      1     116.547586263400     445.222086509286 
    30     31     33      1     116.547586263400     445.222086509286 
    30     31    135      1     116.547586263400     445.222086509286 
    31     30    133      1     116.547586263400     445.222086509286 
    31     30    134      1     116.547586263400     445.222086509286 
    31     32     34      1     116.547586263400     445.222086509286 
    31     32    136      1     116.547586263400     445.222086509286 
    31     32    137      1     116.547586263400     445.222086509286 
    31     33     35      1     116.547586263400     445.222086509286 
    31     33    138      1     116.547586263400     445.222086509286 
    31     33    139      1     116.547586263400     445.222086509286 
    32     31     33      1     116.547586263400     445.222086509286 
    32     31    135      1     116.547586263400     445.222086509286 
    32     34     36      1     116.547586263400     445.222086509286 
    32     34    140      1     116.547586263400     445.222086509286 
    32     34    141      1     116.547586263400     445.222086509286 
    33     31    135      1     116.547586263400     445.222086509286 
    33     35     36      1     116.547586263400     445.222086509286 
    33     35    142      1     116.547586263400     445.222086509286 
    33     35    143      1     116.547586263400     445.222086509286 
    34     32    136      1     116.547586263400     445.222086509286 
    34     32    137      1     116.547586263400     445.222086509286 
    34     36     35      1     116.547586263400     445.222086509286 
    34     36     37      1     116.547586263400     445.222086509286 
    34     36    144      1     116.547586263400     445.222086509286 
    35     33    138      1     116.547586263400     445.222086509286 
    35     33    139      1     116.547586263400     445.222086509286 
    35     36     37      1     116.547586263400     445.222086509286 
    35     36    144      1     116.547586263400     445.222086509286 
    36     34    140      1     116.547586263400     445.222086509286 
    36     34    141      1     116.547586263400     445.222086509286 
    36     35    142      1     116.547586263400     445.222086509286 
    36     35    143      1     116.547586263400     445.222086509286 
    36     37     38      1     110.353880618100     544.678275491328 
    37     36    144      1     116.547586263400     445.222086509286 
    37     38     39      1     157.379318598500     542.862349134858 
    37     38     40      1     157.379318598500     542.862349134858 
    37     38     41      1     157.379318598500     542.862349134858 
    39     38     40      1     157.379318598500     542.862349134858 
    39     38     41      1     157.379318598500     542.862349134858 
    40     38     41      1     157.379318598500     542.862349134858 
    42     28    131      1     116.547586263400     445.222086509286 
    42     43     44      1     116.547586263400     445.222086509286 
    42     43     46      1     116.547586263400     445.222086509286 
    42     43    146      1     116.547586263400     445.222086509286 
    43     42    145      1     110.920219630000     791.028080064996 
    43     44     45      1     126.806242045100     484.492885493347 
    43     44     51      1     126.806242045100     484.492885493347 
    43     46     47      1     116.547586263400     445.222086509286 
    43     46    147      1     116.547586263400     445.222086509286 
    43     46    148      1     116.547586263400     445.222086509286 
    44     43     46      1     116.547586263400     445.222086509286 
    44     43    146      1     116.547586263400     445.222086509286 
    44     51     52      1     117.346557051400     463.769802376852 
    44     51    151      1     115.507132767400     530.901282784327 
    45     44     51      1     126.806242045100     484.492885493347 
    46     43    146      1     116.547586263400     445.222086509286 
    46     47     48      1     116.547586263400     445.222086509286 
    46     47    149      1     116.547586263400     445.222086509286 
    46     47    150      1     116.547586263400     445.222086509286 
    47     46    147      1     116.547586263400     445.222086509286 
    47     46    148      1     116.547586263400     445.222086509286 
    47     48     49      1     126.806242045100     484.492885493347 
    47     48     50      1     126.806242045100     484.492885493347 
    48     47    149      1     116.547586263400     445.222086509286 
    48     47    150      1     116.547586263400     445.222086509286 
    49     48     50      1     127.469141619100    1685.413543333009 
    51     52     53      1     116.547586263400     445.222086509286 
    51     52     55      1     116.547586263400     445.222086509286 
    51     52    152      1     116.547586263400     445.222086509286 
    52     51    151      1     115.507132767400     530.901282784327 
    52     53     54      1     126.806242045100     484.492885493347 
    52     53     60      1     126.806242045100     484.492885493347 
    52     55     56      1     116.547586263400     445.222086509286 
    52     55    153      1     116.547586263400     445.222086509286 
    52     55    154      1     116.547586263400     445.222086509286 
    53     52     55      1     116.547586263400     445.222086509286 
    53     52    152      1     116.547586263400     445.222086509286 
    53     60     61      1     117.346557051400     463.769802376852 
    53     60    157      1     115.507132767400     530.901282784327 
    54     53     60      1     126.806242045100     484.492885493347 
    55     52    152      1     116.547586263400     445.222086509286 
    55     56     57      1     116.547586263400     445.222086509286 
    55     56    155      1     116.547586263400     445.222086509286 
    55     56    156      1     116.547586263400     445.222086509286 
    56     55    153      1     116.547586263400     445.222086509286 
    56     55    154      1     116.547586263400     445.222086509286 
    56     57     58      1     126.806242045100     484.492885493347 
    56     57     59      1     126.806242045100     484.492885493347 
    57     56    155      1     116.547586263400     445.222086509286 
    57     56    156      1     116.547586263400     445.222086509286 
    58     57     59      1     127.469141619100    1685.413543333009 
    60     61     62      1     116.547586263400     445.222086509286 
    60     61     64      1     116.547586263400     445.222086509286 
    60     61    158      1     116.547586263400     445.222086509286 
    61     60    157      1     115.507132767400     530.901282784327 
    61     62     63      1     126.806242045100     484.492885493347 
    61     62     68      1     126.806242045100     484.492885493347 
    61     64     65      1     116.547586263400     445.222086509286 
    61     64     66      1     116.547586263400     445.222086509286 
    61     64    159      1     116.547586263400     445.222086509286 
    62     61     64      1     116.547586263400     445.222086509286 
    62     61    158      1     116.547586263400     445.222086509286 
    62     68     69      1     117.346557051400     463.769802376852 
    62     68     74      1     117.346557051400     463.769802376852 
    63     62     68      1     126.806242045100     484.492885493347 
    64     61    158      1     116.547586263400     445.222086509286 
    64     65     67      1     116.547586263400     445.222086509286 
    64     65    160      1     116.547586263400     445.222086509286 
    64     65    161      1     116.547586263400     445.222086509286 
    64     66    162      1     116.547586263400     445.222086509286 
    64     66    163      1     116.547586263400     445.222086509286 
    64     66    164      1     116.547586263400     445.222086509286 
    65     64     66      1     116.547586263400     445.222086509286 
    65     64    159      1     116.547586263400     445.222086509286 
    65     67    165      1     116.547586263400     445.222086509286 
    65     67    166      1     116.547586263400     445.222086509286 
    65     67    167      1     116.547586263400     445.222086509286 
    66     64    159      1     116.547586263400     445.222086509286 
    67     65    160      1     116.547586263400     445.222086509286 
    67     65    161      1     116.547586263400     445.222086509286 
    68     69     70      1     116.547586263400     445.222086509286 
    68     69     72      1     116.547586263400     445.222086509286 
    68     69    168      1     116.547586263400     445.222086509286 
    68     74     73      1     116.547586263400     445.222086509286 
    68     74    173      1     116.547586263400     445.222086509286 
    68     74    174      1     116.547586263400     445.222086509286 
    69     68     74      1     117.346557051400     463.769802376852 
    69     70     71      1     126.806242045100     484.492885493347 
    69     70     75      1     126.806242045100     484.492885493347 
    69     72     73      1     116.547586263400     445.222086509286 
    69     72    169      1     116.547586263400     445.222086509286 
    69     72    170      1     116.547586263400     445.222086509286 
    70     69     72      1     116.547586263400     445.222086509286 
    70     69    168      1     116.547586263400     445.222086509286 
    70     75     76      1     117.346557051400     463.769802376852 
    70     75    175      1     115.507132767400     530.901282784327 
    71     70     75      1     126.806242045100     484.492885493347 
    72     69    168      1     116.547586263400     445.222086509286 
    72     73     74      1     116.547586263400     445.222086509286 
    72     73    171      1     116.547586263400     445.222086509286 
    72     73    172      1     116.547586263400     445.222086509286 
    73     72    169      1     116.547586263400     445.222086509286 
    73     72    170      1     116.547586263400     445.222086509286 
    73     74    173      1     116.547586263400     445.222086509286 
    73     74    174      1     116.547586263400     445.222086509286 
    74     73    171      1     116.547586263400     445.222086509286 
    74     73    172      1     116.547586263400     445.222086509286 
    75     76     77      1     116.547586263400     445.222086509286 
    75     76     79      1     116.547586263400     445.222086509286 
    75     76    176      1     116.547586263400     445.222086509286 
    76     75    175      1     115.507132767400     530.901282784327 
    76     77     78      1     126.806242045100     484.492885493347 
    76     77     83      1     126.806242045100     484.492885493347 
    76     79     80      1     116.547586263400     445.222086509286 
    76     79     81      1     116.547586263400     445.222086509286 
    76     79    177      1     116.547586263400     445.222086509286 
    77     76     79      1     116.547586263400     445.222086509286 
    77     76    176      1     116.547586263400     445.222086509286 
    77     83     84      1     117.346557051400     463.769802376852 
    77     83    186      1     115.507132767400     530.901282784327 
    78     77     83      1     126.806242045100     484.492885493347 
    79     76    176      1     116.547586263400     445.222086509286 
    79     80     82      1     116.547586263400     445.222086509286 
    79     80    178      1     116.547586263400     445.222086509286 
    79     80    179      1     116.547586263400     445.222086509286 
    79     81    180      1     116.547586263400     445.222086509286 
    79     81    181      1     116.547586263400     445.222086509286 
    79     81    182      1     116.547586263400     445.222086509286 
    80     79     81      1     116.547586263400     445.222086509286 
    80     79    177      1     116.547586263400     445.222086509286 
    80     82    183      1     116.547586263400     445.222086509286 
    80     82    184      1     116.547586263400     445.222086509286 
    80     82    185      1     116.547586263400     445.222086509286 
    81     79    177      1     116.547586263400     445.222086509286 
    82     80    178      1     116.547586263400     445.222086509286 
    82     80    179      1     116.547586263400     445.222086509286 
    83     84     85      1     116.547586263400     445.222086509286 
    83     84     87      1     116.547586263400     445.222086509286 
    83     84    187      1     116.547586263400     445.222086509286 
    84     83    186      1     115.507132767400     530.901282784327 
    84     85     86      1     126.806242045100     484.492885493347 
    84     85     95      1     126.806242045100     484.492885493347 
    84     87     88      1     116.547586263400     445.222086509286 
    84     87    188      1     116.547586263400     445.222086509286 
    84     87    189      1     116.547586263400     445.222086509286 
    85     84     87      1     116.547586263400     445.222086509286 
    85     84    187      1     116.547586263400     445.222086509286 
    85     95     96      1     117.346557051400     463.769802376852 
    85     95    195      1     115.507132767400     530.901282784327 
    86     85     95      1     126.806242045100     484.492885493347 
    87     84    187      1     116.547586263400     445.222086509286 
    87     88     89      1     126.806242045100     484.492885493347 
    87     88     90      1     126.806242045100     484.492885493347 
    88     87    188      1     116.547586263400     445.222086509286 
    88     87    189      1     116.547586263400     445.222086509286 
    88     89     91      1     126.806242045100     484.492885493347 
    88     89    190      1     129.183592992600     285.070774532144 
    88     90     92      1     126.806242045100     484.492885493347 
    88     90    191      1     129.183592992600     285.070774532144 
    89     88     90      1     126.806242045100     484.492885493347 
    89     91     93      1     126.806242045100     484.492885493347 
    89     91    192      1     129.183592992600     285.070774532144 
    90     92     93      1     126.806242045100     484.492885493347 
    90     92    193      1     129.183592992600     285.070774532144 
    91     89    190      1     129.183592992600     285.070774532144 
    91     93     92      1     126.806242045100     484.492885493347 
    91     93     94      1     126.806242045100     484.492885493347 
    92     90    191      1     129.183592992600     285.070774532144 
    92     93     94      1     126.806242045100     484.492885493347 
    93     91    192      1     129.183592992600     285.070774532144 
    93     92    193      1     129.183592992600     285.070774532144 
    93     94    194      1     110.353880618100     544.678275491328 
    95     96     97      1     116.547586263400     445.222086509286 
    95     96     99      1     116.547586263400     445.222086509286 
    95     96    196      1     116.547586263400     445.222086509286 
    96     95    195      1     115.507132767400     530.901282784327 
    96     97     98      1     126.806242045100     484.492885493347 
    96     97    106      1     126.806242045100     484.492885493347 
    96     99    100      1     116.547586263400     445.222086509286 
    96     99    197      1     116.547586263400     445.222086509286 
    96     99    198      1     116.547586263400     445.222086509286 
    97     96     99      1     116.547586263400     445.222086509286 
    97     96    196      1     116.547586263400     445.222086509286 
    97    106    107      1     117.346557051400     463.769802376852 
    97    106    209      1     115.507132767400     530.901282784327 
    98     97    106      1     126.806242045100     484.492885493347 
    99     96    196      1     116.547586263400     445.222086509286 
    99    100    101      1     116.547586263400     445.222086509286 
    99    100    102      1     116.547586263400     445.222086509286 
    99    100    199      1     116.547586263400     445.222086509286 
   100     99    197      1     116.547586263400     445.222086509286 
   100     99    198      1     116.547586263400     445.222086509286 
   100    101    200      1     116.547586263400     445.222086509286 
   100    101    201      1     116.547586263400     445.222086509286 
   100    101    202      1     116.547586263400     445.222086509286 
   100    102    203      1     116.547586263400     445.222086509286 
   100    102    204      1     116.547586263400     445.222086509286 
   100    102    205      1     116.547586263400     445.222086509286 
   101    100    102      1     116.547586263400     445.222086509286 
   101    100    199      1     116.547586263400     445.222086509286 
   102    100    199      1     116.547586263400     445.222086509286 
   103      1    108      1     115.507132767400     530.901282784327 
   103    105    206      1     116.547586263400     445.222086509286 
   103    105    207      1     116.547586263400     445.222086509286 
   103    105    208      1     116.547586263400     445.222086509286 
   104    103    105      1     126.806242045100     484.492885493347 
   106    107    210      1     116.547586263400     445.222086509286 
   106    107    211      1     116.547586263400     445.222086509286 
   106    107    212      1     116.547586263400     445.222086509286 
   107    106    209      1     115.507132767400     530.901282784327 
   110      5    111      1     115.603099953300     408.161690475075 
   112      6    113      1     115.603099953300     408.161690475075 
   115     14    116      1     115.603099953300     408.161690475075 
   117     15    118      1     115.603099953300     408.161690475075 
   119     16    120      1     115.603099953300     408.161690475075 
   123     21    124      1     115.603099953300     408.161690475075 
   125     22    126      1     115.603099953300     408.161690475075 
   127     24    128      1     115.507132767400     530.901282784327 
   133     30    134      1     115.603099953300     408.161690475075 
   136     32    137      1     115.603099953300     408.161690475075 
   138     33    139      1     115.603099953300     408.161690475075 
   140     34    141      1     115.603099953300     408.161690475075 
   142     35    143      1     115.603099953300     408.161690475075 
   147     46    148      1     115.603099953300     408.161690475075 
   149     47    150      1     115.603099953300     408.161690475075 
   153     55    154      1     115.603099953300     408.161690475075 
   155     56    156      1     115.603099953300     408.161690475075 
   160     65    161      1     115.603099953300     408.161690475075 
   162     66    163      1     115.603099953300     408.161690475075 
   162     66    164      1     115.603099953300     408.161690475075 
   163     66    164      1     115.603099953300     408.161690475075 
   165     67    166      1     115.603099953300     408.161690475075 
   165     67    167      1     115.603099953300     408.161690475075 
   166     67    167      1     115.603099953300     408.161690475075 
   169     72    170      1     115.603099953300     408.161690475075 
   171     73    172      1     115.603099953300     408.161690475075 
   173     74    174      1     115.603099953300     408.161690475075 
   178     80    179      1     115.603099953300     408.161690475075 
   180     81    181      1     115.603099953300     408.161690475075 
   180     81    182      1     115.603099953300     408.161690475075 
   181     81    182      1     115.603099953300     408.161690475075 
   183     82    184      1     115.603099953300     408.161690475075 
   183     82    185      1     115.603099953300     408.161690475075 
   184     82    185      1     115.603099953300     408.161690475075 
   188     87    189      1     115.603099953300     408.161690475075 
   197     99    198      1     115.603099953300     408.161690475075 
   200    101    201      1     115.603099953300     408.161690475075 
   200    101    202      1     115.603099953300     408.161690475075 
   201    101    202      1     115.603099953300     408.161690475075 
   203    102    204      1     115.603099953300     408.161690475075 
   203    102    205      1     115.603099953300     408.161690475075 
   204    102    205      1     115.603099953300     408.161690475075 
   206    105    207      1     115.603099953300     408.161690475075 
   206    105    208      1     115.603099953300     408.161690475075 
   207    105    208      1     115.603099953300     408.161690475075 
   210    107    211      1     115.603099953300     408.161690475075 
   210    107    212      1     115.603099953300     408.161690475075 
   211    107    212      1     115.603099953300     408.161690475075 

[ dihedrals ]
;ai    aj   ak   al   funct phi  k
     1     2     3     4     1      0.000000000000     -1.549482649691                 2
     1     2     3    10     1    180.000000000000     -1.556339668180                 1
     1     2     3    10     1    180.000000000000      1.682859881397                 2
     1     2     5     6     1      0.000000000000      0.483407861024                 3
     1     2     5   110     1      0.000000000000      0.483407861024                 3
     1     2     5   111     1      0.000000000000      0.483407861024                 3
     1   103   105   206     1      0.000000000000      0.111501038139                 3
     1   103   105   207     1      0.000000000000      0.111501038139                 3
     1   103   105   208     1      0.000000000000      0.111501038139                 3
     2     1   103   104     1    180.000000000000     12.978553656010                 2
     2     1   103   104     1      0.000000000000     -1.779100933344                 1
     2     1   103   105     1    180.000000000000      7.569054279773                 2
     2     1   103   105     1      0.000000000000     -0.201513062842                 1
     2     3    10    11     1    180.000000000000      7.569054279773                 2
     2     3    10    11     1      0.000000000000     -0.201513062842                 1
     2     3    10    16     1    180.000000000000      7.569054279773                 2
     2     3    10    16     1      0.000000000000     -0.201513062842                 1
     2     5     6     7     1      0.000000000000      0.483407861024                 3
     2     5     6   112     1      0.000000000000      0.435413753811                 3
     2     5     6   113     1      0.000000000000      0.435413753811                 3
     3     2     1   103     1    180.000000000000     -2.883499339083                 2
     3     2     1   103     1      0.000000000000      1.141330947302                 1
     3     2     1   108     1      0.000000000000      0.762485897686                 2
     3     2     1   108     1      0.000000000000      0.124362804952                 3
     3     2     5     6     1      0.000000000000      0.483407861024                 3
     3     2     5   110     1      0.000000000000      0.483407861024                 3
     3     2     5   111     1      0.000000000000      0.483407861024                 3
     3    10    11    12     1    180.000000000000     -2.883499339083                 2
     3    10    11    12     1      0.000000000000      1.141330947302                 1
     3    10    11    14     1    180.000000000000     -0.622862944840                 4
     3    10    11    14     1    180.000000000000     -0.514769632165                 3
     3    10    11    14     1      0.000000000000      1.229801223351                 2
     3    10    11    14     1      0.000000000000     -1.265294746367                 1
     3    10    11   114     1      0.000000000000      0.762485897686                 2
     3    10    11   114     1      0.000000000000      0.124362804952                 3
     3    10    16    15     1    180.000000000000     -0.622862944840                 4
     3    10    16    15     1    180.000000000000     -0.514769632165                 3
     3    10    16    15     1      0.000000000000      1.229801223351                 2
     3    10    16    15     1      0.000000000000     -1.265294746367                 1
     3    10    16   119     1      0.000000000000      0.762485897686                 2
     3    10    16   119     1      0.000000000000      0.124362804952                 3
     3    10    16   120     1      0.000000000000      0.762485897686                 2
     3    10    16   120     1      0.000000000000      0.124362804952                 3
     4     3     2     5     1      0.000000000000     -1.549482649691                 2
     4     3     2   109     1      0.000000000000      1.900237470334                 1
     4     3     2   109     1      0.000000000000      0.623294863345                 2
     4     3     2   109     1    180.000000000000      0.123847541423                 3
     4     3    10    11     1    180.000000000000     12.978553656010                 2
     4     3    10    11     1      0.000000000000     -1.779100933344                 1
     4     3    10    16     1    180.000000000000     12.978553656010                 2
     4     3    10    16     1      0.000000000000     -1.779100933344                 1
     5     2     1   103     1    180.000000000000     -0.622862944840                 4
     5     2     1   103     1    180.000000000000     -0.514769632165                 3
     5     2     1   103     1      0.000000000000      1.229801223351                 2
     5     2     1   103     1      0.000000000000     -1.265294746367                 1
     5     2     1   108     1      0.000000000000      0.762485897686                 2
     5     2     1   108     1      0.000000000000      0.124362804952                 3
     5     2     3    10     1      0.000000000000     -0.190866664426                 4
     5     2     3    10     1      0.000000000000      0.642700485649                 2
     5     6     7     8     1      0.000000000000     -1.549482649691                 2
     5     6     7     9     1      0.000000000000      0.111501038139                 3
     6     5     2   109     1      0.000000000000      0.435413753811                 3
     7     6     5   110     1      0.000000000000      0.483407861024                 3
     7     6     5   111     1      0.000000000000      0.483407861024                 3
     8     7     6   112     1      0.000000000000      1.900237470334                 1
     8     7     6   112     1      0.000000000000      0.623294863345                 2
     8     7     6   112     1    180.000000000000      0.123847541423                 3
     8     7     6   113     1      0.000000000000      1.900237470334                 1
     8     7     6   113     1      0.000000000000      0.623294863345                 2
     8     7     6   113     1    180.000000000000      0.123847541423                 3
     9     7     6   112     1      0.000000000000      0.111501038139                 3
     9     7     6   113     1      0.000000000000      0.111501038139                 3
    10     3     2   109     1      0.000000000000      0.111501038139                 3
    10    11    12    13     1      0.000000000000     -1.549482649691                 2
    10    11    12    17     1    180.000000000000     -1.556339668180                 1
    10    11    12    17     1    180.000000000000      1.682859881397                 2
    10    11    14    15     1      0.000000000000      0.483407861024                 3
    10    11    14   115     1      0.000000000000      0.483407861024                 3
    10    11    14   116     1      0.000000000000      0.483407861024                 3
    10    16    15    14     1      0.000000000000      0.483407861024                 3
    10    16    15   117     1      0.000000000000      0.483407861024                 3
    10    16    15   118     1      0.000000000000      0.483407861024                 3
    11    10    16    15     1      0.000000000000      0.762485897686                 2
    11    10    16    15     1      0.000000000000      0.124362804952                 3
    11    10    16   119     1      0.000000000000      0.762485897686                 2
    11    10    16   119     1      0.000000000000      0.124362804952                 3
    11    10    16   120     1      0.000000000000      0.762485897686                 2
    11    10    16   120     1      0.000000000000      0.124362804952                 3
    11    12    17    18     1    180.000000000000      7.569054279773                 2
    11    12    17    18     1      0.000000000000     -0.201513062842                 1
    11    12    17   121     1    180.000000000000      7.569054279773                 2
    11    12    17   121     1      0.000000000000     -0.201513062842                 1
    11    14    15    16     1      0.000000000000      0.385926890019                 3
    11    14    15    16     1    180.000000000000      1.322117189743                 2
    11    14    15    16     1    180.000000000000      1.358878183989                 1
    11    14    15   117     1      0.000000000000      0.435413753811                 3
    11    14    15   118     1      0.000000000000      0.435413753811                 3
    12    11    10    16     1      0.000000000000      0.762485897686                 2
    12    11    10    16     1      0.000000000000      0.124362804952                 3
    12    11    14    15     1      0.000000000000      0.483407861024                 3
    12    11    14   115     1      0.000000000000      0.483407861024                 3
    12    11    14   116     1      0.000000000000      0.483407861024                 3
    12    17    18    19     1    180.000000000000     -2.883499339083                 2
    12    17    18    19     1      0.000000000000      1.141330947302                 1
    12    17    18    21     1    180.000000000000     -0.622862944840                 4
    12    17    18    21     1    180.000000000000     -0.514769632165                 3
    12    17    18    21     1      0.000000000000      1.229801223351                 2
    12    17    18    21     1      0.000000000000     -1.265294746367                 1
    12    17    18   122     1      0.000000000000      0.762485897686                 2
    12    17    18   122     1      0.000000000000      0.124362804952                 3
    13    12    11    14     1      0.000000000000     -1.549482649691                 2
    13    12    11   114     1      0.000000000000      1.900237470334                 1
    13    12    11   114     1      0.000000000000      0.623294863345                 2
    13    12    11   114     1    180.000000000000      0.123847541423                 3
    13    12    17    18     1    180.000000000000     12.978553656010                 2
    13    12    17    18     1      0.000000000000     -1.779100933344                 1
    13    12    17   121     1    180.000000000000      9.825603686166                 2
    13    12    17   121     1      0.000000000000      5.255757435828                 1
    14    11    10    16     1      0.000000000000      0.762485897686                 2
    14    11    10    16     1      0.000000000000      0.124362804952                 3
    14    11    12    17     1      0.000000000000     -0.190866664426                 4
    14    11    12    17     1      0.000000000000      0.642700485649                 2
    14    15    16   119     1      0.000000000000      0.435413753811                 3
    14    15    16   120     1      0.000000000000      0.435413753811                 3
    15    14    11   114     1      0.000000000000      0.435413753811                 3
    16    10    11   114     1      0.000000000000      0.762485897686                 2
    16    10    11   114     1      0.000000000000      0.124362804952                 3
    16    15    14   115     1      0.000000000000      0.435413753811                 3
    16    15    14   116     1      0.000000000000      0.435413753811                 3
    17    12    11   114     1      0.000000000000      0.111501038139                 3
    17    18    19    20     1      0.000000000000     -1.549482649691                 2
    17    18    19    26     1    180.000000000000     -1.556339668180                 1
    17    18    19    26     1    180.000000000000      1.682859881397                 2
    17    18    21    22     1      0.000000000000      0.483407861024                 3
    17    18    21   123     1      0.000000000000      0.483407861024                 3
    17    18    21   124     1      0.000000000000      0.483407861024                 3
    18    19    26    27     1    180.000000000000      7.569054279773                 2
    18    19    26    27     1      0.000000000000     -0.201513062842                 1
    18    19    26   129     1    180.000000000000      7.569054279773                 2
    18    19    26   129     1      0.000000000000     -0.201513062842                 1
    18    21    22    23     1      0.000000000000      0.483407861024                 3
    18    21    22   125     1      0.000000000000      0.435413753811                 3
    18    21    22   126     1      0.000000000000      0.435413753811                 3
    19    18    17   121     1      0.000000000000      0.762485897686                 2
    19    18    17   121     1      0.000000000000      0.124362804952                 3
    19    18    21    22     1      0.000000000000      0.483407861024                 3
    19    18    21   123     1      0.000000000000      0.483407861024                 3
    19    18    21   124     1      0.000000000000      0.483407861024                 3
    19    26    27    28     1    180.000000000000     -0.622862944840                 4
    19    26    27    28     1    180.000000000000     -0.514769632165                 3
    19    26    27    28     1      0.000000000000      1.229801223351                 2
    19    26    27    28     1      0.000000000000     -1.265294746367                 1
    19    26    27    30     1    180.000000000000     -0.622862944840                 4
    19    26    27    30     1    180.000000000000     -0.514769632165                 3
    19    26    27    30     1      0.000000000000      1.229801223351                 2
    19    26    27    30     1      0.000000000000     -1.265294746367                 1
    19    26    27   130     1      0.000000000000      0.762485897686                 2
    19    26    27   130     1      0.000000000000      0.124362804952                 3
    20    19    18    21     1      0.000000000000     -1.549482649691                 2
    20    19    18   122     1      0.000000000000      1.900237470334                 1
    20    19    18   122     1      0.000000000000      0.623294863345                 2
    20    19    18   122     1    180.000000000000      0.123847541423                 3
    20    19    26    27     1    180.000000000000     12.978553656010                 2
    20    19    26    27     1      0.000000000000     -1.779100933344                 1
    20    19    26   129     1    180.000000000000      9.825603686166                 2
    20    19    26   129     1      0.000000000000      5.255757435828                 1
    21    18    17   121     1      0.000000000000      0.762485897686                 2
    21    18    17   121     1      0.000000000000      0.124362804952                 3
    21    18    19    26     1      0.000000000000     -0.190866664426                 4
    21    18    19    26     1      0.000000000000      0.642700485649                 2
    21    22    23    24     1      0.000000000000     -0.190866664426                 4
    21    22    23    24     1      0.000000000000      0.642700485649                 2
    21    22    23    25     1      0.000000000000     -1.549482649691                 2
    22    21    18   122     1      0.000000000000      0.435413753811                 3
    22    23    24   127     1    180.000000000000      7.569054279773                 2
    22    23    24   127     1      0.000000000000     -0.201513062842                 1
    22    23    24   128     1    180.000000000000      7.569054279773                 2
    22    23    24   128     1      0.000000000000     -0.201513062842                 1
    23    22    21   123     1      0.000000000000      0.483407861024                 3
    23    22    21   124     1      0.000000000000      0.483407861024                 3
    24    23    22   125     1      0.000000000000      0.111501038139                 3
    24    23    22   126     1      0.000000000000      0.111501038139                 3
    25    23    22   125     1      0.000000000000      1.900237470334                 1
    25    23    22   125     1      0.000000000000      0.623294863345                 2
    25    23    22   125     1    180.000000000000      0.123847541423                 3
    25    23    22   126     1      0.000000000000      1.900237470334                 1
    25    23    22   126     1      0.000000000000      0.623294863345                 2
    25    23    22   126     1    180.000000000000      0.123847541423                 3
    25    23    24   127     1    180.000000000000      9.825603686166                 2
    25    23    24   127     1      0.000000000000      5.255757435828                 1
    25    23    24   128     1    180.000000000000      9.825603686166                 2
    25    23    24   128     1      0.000000000000      5.255757435828                 1
    26    19    18   122     1      0.000000000000      0.111501038139                 3
    26    27    28    29     1      0.000000000000      0.483407861024                 3
    26    27    28    42     1      0.000000000000      0.483407861024                 3
    26    27    28   131     1      0.000000000000      0.483407861024                 3
    26    27    30    31     1      0.000000000000      0.483407861024                 3
    26    27    30   133     1      0.000000000000      0.483407861024                 3
    26    27    30   134     1      0.000000000000      0.483407861024                 3
    27    28    29   132     1      0.000000000000      1.441547891256                 3
    27    28    29   132     1      0.000000000000      0.570930386590                 1
    27    28    42    43     1      0.000000000000      1.176075736276                 3
    27    28    42    43     1    180.000000000000      0.222779472748                 2
    27    28    42   145     1      0.000000000000      0.852142796599                 3
    27    30    31    32     1      0.000000000000      0.385926890019                 3
    27    30    31    32     1    180.000000000000      1.322117189743                 2
    27    30    31    32     1    180.000000000000      1.358878183989                 1
    27    30    31    33     1      0.000000000000      0.385926890019                 3
    27    30    31    33     1    180.000000000000      1.322117189743                 2
    27    30    31    33     1    180.000000000000      1.358878183989                 1
    27    30    31   135     1      0.000000000000      0.435413753811                 3
    28    27    26   129     1      0.000000000000      0.762485897686                 2
    28    27    26   129     1      0.000000000000      0.124362804952                 3
    28    27    30    31     1      0.000000000000      0.385926890019                 3
    28    27    30    31     1    180.000000000000      1.322117189743                 2
    28    27    30    31     1    180.000000000000      1.358878183989                 1
    28    27    30   133     1      0.000000000000      0.435413753811                 3
    28    27    30   134     1      0.000000000000      0.435413753811                 3
    28    42    43    44     1      0.000000000000      0.852142796599                 3
    28    42    43    46     1      0.000000000000      1.176075736276                 3
    28    42    43    46     1    180.000000000000      0.222779472748                 2
    28    42    43   146     1      0.000000000000      0.852142796599                 3
    29    28    27    30     1      0.000000000000      0.483407861024                 3
    29    28    27   130     1      0.000000000000      0.466735938990                 3
    29    28    27   130     1      0.000000000000      1.436153909162                 1
    29    28    42    43     1      0.000000000000      0.852142796599                 3
    29    28    42   145     1      0.000000000000      0.852142796599                 3
    30    27    26   129     1      0.000000000000      0.762485897686                 2
    30    27    26   129     1      0.000000000000      0.124362804952                 3
    30    27    28    42     1      0.000000000000      0.483407861024                 3
    30    27    28   131     1      0.000000000000      0.435413753811                 3
    30    31    32    34     1      0.000000000000      0.385926890019                 3
    30    31    32    34     1    180.000000000000      1.322117189743                 2
    30    31    32    34     1    180.000000000000      1.358878183989                 1
    30    31    32   136     1      0.000000000000      0.435413753811                 3
    30    31    32   137     1      0.000000000000      0.435413753811                 3
    30    31    33    35     1      0.000000000000      0.385926890019                 3
    30    31    33    35     1    180.000000000000      1.322117189743                 2
    30    31    33    35     1    180.000000000000      1.358878183989                 1
    30    31    33   138     1      0.000000000000      0.435413753811                 3
    30    31    33   139     1      0.000000000000      0.435413753811                 3
    31    30    27   130     1      0.000000000000      0.435413753811                 3
    31    32    34    36     1      0.000000000000      0.385926890019                 3
    31    32    34    36     1    180.000000000000      1.322117189743                 2
    31    32    34    36     1    180.000000000000      1.358878183989                 1
    31    32    34   140     1      0.000000000000      0.435413753811                 3
    31    32    34   141     1      0.000000000000      0.435413753811                 3
    31    33    35    36     1      0.000000000000      0.385926890019                 3
    31    33    35    36     1    180.000000000000      1.322117189743                 2
    31    33    35    36     1    180.000000000000      1.358878183989                 1
    31    33    35   142     1      0.000000000000      0.435413753811                 3
    31    33    35   143     1      0.000000000000      0.435413753811                 3
    32    31    30   133     1      0.000000000000      0.435413753811                 3
    32    31    30   134     1      0.000000000000      0.435413753811                 3
    32    31    33    35     1      0.000000000000      0.385926890019                 3
    32    31    33    35     1    180.000000000000      1.322117189743                 2
    32    31    33    35     1    180.000000000000      1.358878183989                 1
    32    31    33   138     1      0.000000000000      0.435413753811                 3
    32    31    33   139     1      0.000000000000      0.435413753811                 3
    32    34    36    35     1      0.000000000000      0.385926890019                 3
    32    34    36    35     1    180.000000000000      1.322117189743                 2
    32    34    36    35     1    180.000000000000      1.358878183989                 1
    32    34    36    37     1      0.000000000000      0.483407861024                 3
    32    34    36   144     1      0.000000000000      0.435413753811                 3
    33    31    30   133     1      0.000000000000      0.435413753811                 3
    33    31    30   134     1      0.000000000000      0.435413753811                 3
    33    31    32    34     1      0.000000000000      0.385926890019                 3
    33    31    32    34     1    180.000000000000      1.322117189743                 2
    33    31    32    34     1    180.000000000000      1.358878183989                 1
    33    31    32   136     1      0.000000000000      0.435413753811                 3
    33    31    32   137     1      0.000000000000      0.435413753811                 3
    33    35    36    34     1      0.000000000000      0.385926890019                 3
    33    35    36    34     1    180.000000000000      1.322117189743                 2
    33    35    36    34     1    180.000000000000      1.358878183989                 1
    33    35    36    37     1      0.000000000000      0.483407861024                 3
    33    35    36   144     1      0.000000000000      0.435413753811                 3
    34    32    31   135     1      0.000000000000      0.435413753811                 3
    34    36    35   142     1      0.000000000000      0.435413753811                 3
    34    36    35   143     1      0.000000000000      0.435413753811                 3
    34    36    37    38     1      0.000000000000      0.198220506977                 3
    35    33    31   135     1      0.000000000000      0.435413753811                 3
    35    36    34   140     1      0.000000000000      0.435413753811                 3
    35    36    34   141     1      0.000000000000      0.435413753811                 3
    35    36    37    38     1      0.000000000000      0.198220506977                 3
    36    34    32   136     1      0.000000000000      0.435413753811                 3
    36    34    32   137     1      0.000000000000      0.435413753811                 3
    36    35    33   138     1      0.000000000000      0.435413753811                 3
    36    35    33   139     1      0.000000000000      0.435413753811                 3
    36    37    38    39     1      0.000000000000      2.488193532757                 3
    36    37    38    40     1      0.000000000000      2.488193532757                 3
    36    37    38    41     1      0.000000000000      2.488193532757                 3
    37    36    34   140     1      0.000000000000      0.466735938990                 3
    37    36    34   140     1      0.000000000000      1.436153909162                 1
    37    36    34   141     1      0.000000000000      0.466735938990                 3
    37    36    34   141     1      0.000000000000      1.436153909162                 1
    37    36    35   142     1      0.000000000000      0.466735938990                 3
    37    36    35   142     1      0.000000000000      1.436153909162                 1
    37    36    35   143     1      0.000000000000      0.466735938990                 3
    37    36    35   143     1      0.000000000000      1.436153909162                 1
    38    37    36   144     1      0.000000000000      0.198220506977                 3
    42    28    27   130     1      0.000000000000      0.483407861024                 3
    42    28    29   132     1      0.000000000000      1.266241646075                 3
    42    43    44    45     1      0.000000000000     -1.549482649691                 2
    42    43    44    51     1    180.000000000000     -1.556339668180                 1
    42    43    44    51     1    180.000000000000      1.682859881397                 2
    42    43    46    47     1      0.000000000000      0.483407861024                 3
    42    43    46   147     1      0.000000000000      0.483407861024                 3
    42    43    46   148     1      0.000000000000      0.483407861024                 3
    43    42    28   131     1      0.000000000000      0.852142796599                 3
    43    44    51    52     1    180.000000000000      7.569054279773                 2
    43    44    51    52     1      0.000000000000     -0.201513062842                 1
    43    44    51   151     1    180.000000000000      7.569054279773                 2
    43    44    51   151     1      0.000000000000     -0.201513062842                 1
    43    46    47    48     1      0.000000000000      0.483407861024                 3
    43    46    47   149     1      0.000000000000      0.435413753811                 3
    43    46    47   150     1      0.000000000000      0.435413753811                 3
    44    43    42   145     1      0.000000000000      0.852142796599                 3
    44    43    46    47     1      0.000000000000      0.483407861024                 3
    44    43    46   147     1      0.000000000000      0.483407861024                 3
    44    43    46   148     1      0.000000000000      0.483407861024                 3
    44    51    52    53     1    180.000000000000     -2.883499339083                 2
    44    51    52    53     1      0.000000000000      1.141330947302                 1
    44    51    52    55     1    180.000000000000     -0.622862944840                 4
    44    51    52    55     1    180.000000000000     -0.514769632165                 3
    44    51    52    55     1      0.000000000000      1.229801223351                 2
    44    51    52    55     1      0.000000000000     -1.265294746367                 1
    44    51    52   152     1      0.000000000000      0.762485897686                 2
    44    51    52   152     1      0.000000000000      0.124362804952                 3
    45    44    43    46     1      0.000000000000     -1.549482649691                 2
    45    44    43   146     1      0.000000000000      1.900237470334                 1
    45    44    43   146     1      0.000000000000      0.623294863345                 2
    45    44    43   146     1    180.000000000000      0.123847541423                 3
    45    44    51    52     1    180.000000000000     12.978553656010                 2
    45    44    51    52     1      0.000000000000     -1.779100933344                 1
    45    44    51   151     1    180.000000000000      9.825603686166                 2
    45    44    51   151     1      0.000000000000      5.255757435828                 1
    46    43    42   145     1      0.000000000000      0.852142796599                 3
    46    43    44    51     1      0.000000000000     -0.190866664426                 4
    46    43    44    51     1      0.000000000000      0.642700485649                 2
    46    47    48    49     1      0.000000000000     -1.549482649691                 2
    46    47    48    50     1      0.000000000000      0.111501038139                 3
    47    46    43   146     1      0.000000000000      0.435413753811                 3
    48    47    46   147     1      0.000000000000      0.483407861024                 3
    48    47    46   148     1      0.000000000000      0.483407861024                 3
    49    48    47   149     1      0.000000000000      1.900237470334                 1
    49    48    47   149     1      0.000000000000      0.623294863345                 2
    49    48    47   149     1    180.000000000000      0.123847541423                 3
    49    48    47   150     1      0.000000000000      1.900237470334                 1
    49    48    47   150     1      0.000000000000      0.623294863345                 2
    49    48    47   150     1    180.000000000000      0.123847541423                 3
    50    48    47   149     1      0.000000000000      0.111501038139                 3
    50    48    47   150     1      0.000000000000      0.111501038139                 3
    51    44    43   146     1      0.000000000000      0.111501038139                 3
    51    52    53    54     1      0.000000000000     -1.549482649691                 2
    51    52    53    60     1    180.000000000000     -1.556339668180                 1
    51    52    53    60     1    180.000000000000      1.682859881397                 2
    51    52    55    56     1      0.000000000000      0.483407861024                 3
    51    52    55   153     1      0.000000000000      0.483407861024                 3
    51    52    55   154     1      0.000000000000      0.483407861024                 3
    52    53    60    61     1    180.000000000000      7.569054279773                 2
    52    53    60    61     1      0.000000000000     -0.201513062842                 1
    52    53    60   157     1    180.000000000000      7.569054279773                 2
    52    53    60   157     1      0.000000000000     -0.201513062842                 1
    52    55    56    57     1      0.000000000000      0.483407861024                 3
    52    55    56   155     1      0.000000000000      0.435413753811                 3
    52    55    56   156     1      0.000000000000      0.435413753811                 3
    53    52    51   151     1      0.000000000000      0.762485897686                 2
    53    52    51   151     1      0.000000000000      0.124362804952                 3
    53    52    55    56     1      0.000000000000      0.483407861024                 3
    53    52    55   153     1      0.000000000000      0.483407861024                 3
    53    52    55   154     1      0.000000000000      0.483407861024                 3
    53    60    61    62     1    180.000000000000     -2.883499339083                 2
    53    60    61    62     1      0.000000000000      1.141330947302                 1
    53    60    61    64     1    180.000000000000     -0.622862944840                 4
    53    60    61    64     1    180.000000000000     -0.514769632165                 3
    53    60    61    64     1      0.000000000000      1.229801223351                 2
    53    60    61    64     1      0.000000000000     -1.265294746367                 1
    53    60    61   158     1      0.000000000000      0.762485897686                 2
    53    60    61   158     1      0.000000000000      0.124362804952                 3
    54    53    52    55     1      0.000000000000     -1.549482649691                 2
    54    53    52   152     1      0.000000000000      1.900237470334                 1
    54    53    52   152     1      0.000000000000      0.623294863345                 2
    54    53    52   152     1    180.000000000000      0.123847541423                 3
    54    53    60    61     1    180.000000000000     12.978553656010                 2
    54    53    60    61     1      0.000000000000     -1.779100933344                 1
    54    53    60   157     1    180.000000000000      9.825603686166                 2
    54    53    60   157     1      0.000000000000      5.255757435828                 1
    55    52    51   151     1      0.000000000000      0.762485897686                 2
    55    52    51   151     1      0.000000000000      0.124362804952                 3
    55    52    53    60     1      0.000000000000     -0.190866664426                 4
    55    52    53    60     1      0.000000000000      0.642700485649                 2
    55    56    57    58     1      0.000000000000     -1.549482649691                 2
    55    56    57    59     1      0.000000000000      0.111501038139                 3
    56    55    52   152     1      0.000000000000      0.435413753811                 3
    57    56    55   153     1      0.000000000000      0.483407861024                 3
    57    56    55   154     1      0.000000000000      0.483407861024                 3
    58    57    56   155     1      0.000000000000      1.900237470334                 1
    58    57    56   155     1      0.000000000000      0.623294863345                 2
    58    57    56   155     1    180.000000000000      0.123847541423                 3
    58    57    56   156     1      0.000000000000      1.900237470334                 1
    58    57    56   156     1      0.000000000000      0.623294863345                 2
    58    57    56   156     1    180.000000000000      0.123847541423                 3
    59    57    56   155     1      0.000000000000      0.111501038139                 3
    59    57    56   156     1      0.000000000000      0.111501038139                 3
    60    53    52   152     1      0.000000000000      0.111501038139                 3
    60    61    62    63     1      0.000000000000     -1.549482649691                 2
    60    61    62    68     1    180.000000000000     -1.556339668180                 1
    60    61    62    68     1    180.000000000000      1.682859881397                 2
    60    61    64    65     1      0.000000000000      0.483407861024                 3
    60    61    64    66     1      0.000000000000      0.483407861024                 3
    60    61    64   159     1      0.000000000000      0.483407861024                 3
    61    62    68    69     1    180.000000000000      7.569054279773                 2
    61    62    68    69     1      0.000000000000     -0.201513062842                 1
    61    62    68    74     1    180.000000000000      7.569054279773                 2
    61    62    68    74     1      0.000000000000     -0.201513062842                 1
    61    64    65    67     1      0.000000000000      0.385926890019                 3
    61    64    65    67     1    180.000000000000      1.322117189743                 2
    61    64    65    67     1    180.000000000000      1.358878183989                 1
    61    64    65   160     1      0.000000000000      0.435413753811                 3
    61    64    65   161     1      0.000000000000      0.435413753811                 3
    61    64    66   162     1      0.000000000000      0.435413753811                 3
    61    64    66   163     1      0.000000000000      0.435413753811                 3
    61    64    66   164     1      0.000000000000      0.435413753811                 3
    62    61    60   157     1      0.000000000000      0.762485897686                 2
    62    61    60   157     1      0.000000000000      0.124362804952                 3
    62    61    64    65     1      0.000000000000      0.483407861024                 3
    62    61    64    66     1      0.000000000000      0.483407861024                 3
    62    61    64   159     1      0.000000000000      0.483407861024                 3
    62    68    69    70     1    180.000000000000     -2.883499339083                 2
    62    68    69    70     1      0.000000000000      1.141330947302                 1
    62    68    69    72     1    180.000000000000     -0.622862944840                 4
    62    68    69    72     1    180.000000000000     -0.514769632165                 3
    62    68    69    72     1      0.000000000000      1.229801223351                 2
    62    68    69    72     1      0.000000000000     -1.265294746367                 1
    62    68    69   168     1      0.000000000000      0.762485897686                 2
    62    68    69   168     1      0.000000000000      0.124362804952                 3
    62    68    74    73     1    180.000000000000     -0.622862944840                 4
    62    68    74    73     1    180.000000000000     -0.514769632165                 3
    62    68    74    73     1      0.000000000000      1.229801223351                 2
    62    68    74    73     1      0.000000000000     -1.265294746367                 1
    62    68    74   173     1      0.000000000000      0.762485897686                 2
    62    68    74   173     1      0.000000000000      0.124362804952                 3
    62    68    74   174     1      0.000000000000      0.762485897686                 2
    62    68    74   174     1      0.000000000000      0.124362804952                 3
    63    62    61    64     1      0.000000000000     -1.549482649691                 2
    63    62    61   158     1      0.000000000000      1.900237470334                 1
    63    62    61   158     1      0.000000000000      0.623294863345                 2
    63    62    61   158     1    180.000000000000      0.123847541423                 3
    63    62    68    69     1    180.000000000000     12.978553656010                 2
    63    62    68    69     1      0.000000000000     -1.779100933344                 1
    63    62    68    74     1    180.000000000000     12.978553656010                 2
    63    62    68    74     1      0.000000000000     -1.779100933344                 1
    64    61    60   157     1      0.000000000000      0.762485897686                 2
    64    61    60   157     1      0.000000000000      0.124362804952                 3
    64    61    62    68     1      0.000000000000     -0.190866664426                 4
    64    61    62    68     1      0.000000000000      0.642700485649                 2
    64    65    67   165     1      0.000000000000      0.435413753811                 3
    64    65    67   166     1      0.000000000000      0.435413753811                 3
    64    65    67   167     1      0.000000000000      0.435413753811                 3
    65    64    61   158     1      0.000000000000      0.435413753811                 3
    65    64    66   162     1      0.000000000000      0.435413753811                 3
    65    64    66   163     1      0.000000000000      0.435413753811                 3
    65    64    66   164     1      0.000000000000      0.435413753811                 3
    66    64    61   158     1      0.000000000000      0.435413753811                 3
    66    64    65    67     1      0.000000000000      0.385926890019                 3
    66    64    65    67     1    180.000000000000      1.322117189743                 2
    66    64    65    67     1    180.000000000000      1.358878183989                 1
    66    64    65   160     1      0.000000000000      0.435413753811                 3
    66    64    65   161     1      0.000000000000      0.435413753811                 3
    67    65    64   159     1      0.000000000000      0.435413753811                 3
    68    62    61   158     1      0.000000000000      0.111501038139                 3
    68    69    70    71     1      0.000000000000     -1.549482649691                 2
    68    69    70    75     1    180.000000000000     -1.556339668180                 1
    68    69    70    75     1    180.000000000000      1.682859881397                 2
    68    69    72    73     1      0.000000000000      0.483407861024                 3
    68    69    72   169     1      0.000000000000      0.483407861024                 3
    68    69    72   170     1      0.000000000000      0.483407861024                 3
    68    74    73    72     1      0.000000000000      0.483407861024                 3
    68    74    73   171     1      0.000000000000      0.483407861024                 3
    68    74    73   172     1      0.000000000000      0.483407861024                 3
    69    68    74    73     1      0.000000000000      0.762485897686                 2
    69    68    74    73     1      0.000000000000      0.124362804952                 3
    69    68    74   173     1      0.000000000000      0.762485897686                 2
    69    68    74   173     1      0.000000000000      0.124362804952                 3
    69    68    74   174     1      0.000000000000      0.762485897686                 2
    69    68    74   174     1      0.000000000000      0.124362804952                 3
    69    70    75    76     1    180.000000000000      7.569054279773                 2
    69    70    75    76     1      0.000000000000     -0.201513062842                 1
    69    70    75   175     1    180.000000000000      7.569054279773                 2
    69    70    75   175     1      0.000000000000     -0.201513062842                 1
    69    72    73    74     1      0.000000000000      0.385926890019                 3
    69    72    73    74     1    180.000000000000      1.322117189743                 2
    69    72    73    74     1    180.000000000000      1.358878183989                 1
    69    72    73   171     1      0.000000000000      0.435413753811                 3
    69    72    73   172     1      0.000000000000      0.435413753811                 3
    70    69    68    74     1      0.000000000000      0.762485897686                 2
    70    69    68    74     1      0.000000000000      0.124362804952                 3
    70    69    72    73     1      0.000000000000      0.483407861024                 3
    70    69    72   169     1      0.000000000000      0.483407861024                 3
    70    69    72   170     1      0.000000000000      0.483407861024                 3
    70    75    76    77     1    180.000000000000     -2.883499339083                 2
    70    75    76    77     1      0.000000000000      1.141330947302                 1
    70    75    76    79     1    180.000000000000     -0.622862944840                 4
    70    75    76    79     1    180.000000000000     -0.514769632165                 3
    70    75    76    79     1      0.000000000000      1.229801223351                 2
    70    75    76    79     1      0.000000000000     -1.265294746367                 1
    70    75    76   176     1      0.000000000000      0.762485897686                 2
    70    75    76   176     1      0.000000000000      0.124362804952                 3
    71    70    69    72     1      0.000000000000     -1.549482649691                 2
    71    70    69   168     1      0.000000000000      1.900237470334                 1
    71    70    69   168     1      0.000000000000      0.623294863345                 2
    71    70    69   168     1    180.000000000000      0.123847541423                 3
    71    70    75    76     1    180.000000000000     12.978553656010                 2
    71    70    75    76     1      0.000000000000     -1.779100933344                 1
    71    70    75   175     1    180.000000000000      9.825603686166                 2
    71    70    75   175     1      0.000000000000      5.255757435828                 1
    72    69    68    74     1      0.000000000000      0.762485897686                 2
    72    69    68    74     1      0.000000000000      0.124362804952                 3
    72    69    70    75     1      0.000000000000     -0.190866664426                 4
    72    69    70    75     1      0.000000000000      0.642700485649                 2
    72    73    74   173     1      0.000000000000      0.435413753811                 3
    72    73    74   174     1      0.000000000000      0.435413753811                 3
    73    72    69   168     1      0.000000000000      0.435413753811                 3
    74    68    69   168     1      0.000000000000      0.762485897686                 2
    74    68    69   168     1      0.000000000000      0.124362804952                 3
    74    73    72   169     1      0.000000000000      0.435413753811                 3
    74    73    72   170     1      0.000000000000      0.435413753811                 3
    75    70    69   168     1      0.000000000000      0.111501038139                 3
    75    76    77    78     1      0.000000000000     -1.549482649691                 2
    75    76    77    83     1    180.000000000000     -1.556339668180                 1
    75    76    77    83     1    180.000000000000      1.682859881397                 2
    75    76    79    80     1      0.000000000000      0.483407861024                 3
    75    76    79    81     1      0.000000000000      0.483407861024                 3
    75    76    79   177     1      0.000000000000      0.483407861024                 3
    76    77    83    84     1    180.000000000000      7.569054279773                 2
    76    77    83    84     1      0.000000000000     -0.201513062842                 1
    76    77    83   186     1    180.000000000000      7.569054279773                 2
    76    77    83   186     1      0.000000000000     -0.201513062842                 1
    76    79    80    82     1      0.000000000000      0.385926890019                 3
    76    79    80    82     1    180.000000000000      1.322117189743                 2
    76    79    80    82     1    180.000000000000      1.358878183989                 1
    76    79    80   178     1      0.000000000000      0.435413753811                 3
    76    79    80   179     1      0.000000000000      0.435413753811                 3
    76    79    81   180     1      0.000000000000      0.435413753811                 3
    76    79    81   181     1      0.000000000000      0.435413753811                 3
    76    79    81   182     1      0.000000000000      0.435413753811                 3
    77    76    75   175     1      0.000000000000      0.762485897686                 2
    77    76    75   175     1      0.000000000000      0.124362804952                 3
    77    76    79    80     1      0.000000000000      0.483407861024                 3
    77    76    79    81     1      0.000000000000      0.483407861024                 3
    77    76    79   177     1      0.000000000000      0.483407861024                 3
    77    83    84    85     1    180.000000000000     -2.883499339083                 2
    77    83    84    85     1      0.000000000000      1.141330947302                 1
    77    83    84    87     1    180.000000000000     -0.622862944840                 4
    77    83    84    87     1    180.000000000000     -0.514769632165                 3
    77    83    84    87     1      0.000000000000      1.229801223351                 2
    77    83    84    87     1      0.000000000000     -1.265294746367                 1
    77    83    84   187     1      0.000000000000      0.762485897686                 2
    77    83    84   187     1      0.000000000000      0.124362804952                 3
    78    77    76    79     1      0.000000000000     -1.549482649691                 2
    78    77    76   176     1      0.000000000000      1.900237470334                 1
    78    77    76   176     1      0.000000000000      0.623294863345                 2
    78    77    76   176     1    180.000000000000      0.123847541423                 3
    78    77    83    84     1    180.000000000000     12.978553656010                 2
    78    77    83    84     1      0.000000000000     -1.779100933344                 1
    78    77    83   186     1    180.000000000000      9.825603686166                 2
    78    77    83   186     1      0.000000000000      5.255757435828                 1
    79    76    75   175     1      0.000000000000      0.762485897686                 2
    79    76    75   175     1      0.000000000000      0.124362804952                 3
    79    76    77    83     1      0.000000000000     -0.190866664426                 4
    79    76    77    83     1      0.000000000000      0.642700485649                 2
    79    80    82   183     1      0.000000000000      0.435413753811                 3
    79    80    82   184     1      0.000000000000      0.435413753811                 3
    79    80    82   185     1      0.000000000000      0.435413753811                 3
    80    79    76   176     1      0.000000000000      0.435413753811                 3
    80    79    81   180     1      0.000000000000      0.435413753811                 3
    80    79    81   181     1      0.000000000000      0.435413753811                 3
    80    79    81   182     1      0.000000000000      0.435413753811                 3
    81    79    76   176     1      0.000000000000      0.435413753811                 3
    81    79    80    82     1      0.000000000000      0.385926890019                 3
    81    79    80    82     1    180.000000000000      1.322117189743                 2
    81    79    80    82     1    180.000000000000      1.358878183989                 1
    81    79    80   178     1      0.000000000000      0.435413753811                 3
    81    79    80   179     1      0.000000000000      0.435413753811                 3
    82    80    79   177     1      0.000000000000      0.435413753811                 3
    83    77    76   176     1      0.000000000000      0.111501038139                 3
    83    84    85    86     1      0.000000000000     -1.549482649691                 2
    83    84    85    95     1    180.000000000000     -1.556339668180                 1
    83    84    85    95     1    180.000000000000      1.682859881397                 2
    83    84    87    88     1      0.000000000000      0.483407861024                 3
    83    84    87   188     1      0.000000000000      0.483407861024                 3
    83    84    87   189     1      0.000000000000      0.483407861024                 3
    84    85    95    96     1    180.000000000000      7.569054279773                 2
    84    85    95    96     1      0.000000000000     -0.201513062842                 1
    84    85    95   195     1    180.000000000000      7.569054279773                 2
    84    85    95   195     1      0.000000000000     -0.201513062842                 1
    84    87    88    89     1      0.000000000000      0.111501038139                 3
    84    87    88    90     1      0.000000000000      0.111501038139                 3
    85    84    83   186     1      0.000000000000      0.762485897686                 2
    85    84    83   186     1      0.000000000000      0.124362804952                 3
    85    84    87    88     1      0.000000000000      0.483407861024                 3
    85    84    87   188     1      0.000000000000      0.483407861024                 3
    85    84    87   189     1      0.000000000000      0.483407861024                 3
    85    95    96    97     1    180.000000000000     -2.883499339083                 2
    85    95    96    97     1      0.000000000000      1.141330947302                 1
    85    95    96    99     1    180.000000000000     -0.622862944840                 4
    85    95    96    99     1    180.000000000000     -0.514769632165                 3
    85    95    96    99     1      0.000000000000      1.229801223351                 2
    85    95    96    99     1      0.000000000000     -1.265294746367                 1
    85    95    96   196     1      0.000000000000      0.762485897686                 2
    85    95    96   196     1      0.000000000000      0.124362804952                 3
    86    85    84    87     1      0.000000000000     -1.549482649691                 2
    86    85    84   187     1      0.000000000000      1.900237470334                 1
    86    85    84   187     1      0.000000000000      0.623294863345                 2
    86    85    84   187     1    180.000000000000      0.123847541423                 3
    86    85    95    96     1    180.000000000000     12.978553656010                 2
    86    85    95    96     1      0.000000000000     -1.779100933344                 1
    86    85    95   195     1    180.000000000000      9.825603686166                 2
    86    85    95   195     1      0.000000000000      5.255757435828                 1
    87    84    83   186     1      0.000000000000      0.762485897686                 2
    87    84    83   186     1      0.000000000000      0.124362804952                 3
    87    84    85    95     1      0.000000000000     -0.190866664426                 4
    87    84    85    95     1      0.000000000000      0.642700485649                 2
    87    88    89    91     1    180.000000000000     15.321515534534                 2
    87    88    89   190     1    180.000000000000     15.321515534534                 2
    87    88    90    92     1    180.000000000000     15.321515534534                 2
    87    88    90   191     1    180.000000000000     15.321515534534                 2
    88    87    84   187     1      0.000000000000      0.483407861024                 3
    88    89    91    93     1    180.000000000000     15.321515534534                 2
    88    89    91   192     1    180.000000000000     15.321515534534                 2
    88    90    92    93     1    180.000000000000     15.321515534534                 2
    88    90    92   193     1    180.000000000000     15.321515534534                 2
    89    88    87   188     1      0.000000000000      0.111501038139                 3
    89    88    87   189     1      0.000000000000      0.111501038139                 3
    89    88    90    92     1    180.000000000000     15.321515534534                 2
    89    88    90   191     1    180.000000000000     15.321515534534                 2
    89    91    93    92     1    180.000000000000     15.321515534534                 2
    89    91    93    94     1    180.000000000000     15.321515534534                 2
    90    88    87   188     1      0.000000000000      0.111501038139                 3
    90    88    87   189     1      0.000000000000      0.111501038139                 3
    90    88    89    91     1    180.000000000000     15.321515534534                 2
    90    88    89   190     1    180.000000000000     15.321515534534                 2
    90    92    93    91     1    180.000000000000     15.321515534534                 2
    90    92    93    94     1    180.000000000000     15.321515534534                 2
    91    93    92   193     1    180.000000000000     15.321515534534                 2
    91    93    94   194     1    180.000000000000      3.465619998874                 2
    92    93    91   192     1    180.000000000000     15.321515534534                 2
    92    93    94   194     1    180.000000000000      3.465619998874                 2
    93    91    89   190     1    180.000000000000     15.321515534534                 2
    93    92    90   191     1    180.000000000000     15.321515534534                 2
    94    93    91   192     1    180.000000000000     15.321515534534                 2
    94    93    92   193     1    180.000000000000     15.321515534534                 2
    95    85    84   187     1      0.000000000000      0.111501038139                 3
    95    96    97    98     1      0.000000000000     -1.549482649691                 2
    95    96    97   106     1    180.000000000000     -1.556339668180                 1
    95    96    97   106     1    180.000000000000      1.682859881397                 2
    95    96    99   100     1      0.000000000000      0.483407861024                 3
    95    96    99   197     1      0.000000000000      0.483407861024                 3
    95    96    99   198     1      0.000000000000      0.483407861024                 3
    96    97   106   107     1    180.000000000000      7.569054279773                 2
    96    97   106   107     1      0.000000000000     -0.201513062842                 1
    96    97   106   209     1    180.000000000000      7.569054279773                 2
    96    97   106   209     1      0.000000000000     -0.201513062842                 1
    96    99   100   101     1      0.000000000000      0.385926890019                 3
    96    99   100   101     1    180.000000000000      1.322117189743                 2
    96    99   100   101     1    180.000000000000      1.358878183989                 1
    96    99   100   102     1      0.000000000000      0.385926890019                 3
    96    99   100   102     1    180.000000000000      1.322117189743                 2
    96    99   100   102     1    180.000000000000      1.358878183989                 1
    96    99   100   199     1      0.000000000000      0.435413753811                 3
    97    96    95   195     1      0.000000000000      0.762485897686                 2
    97    96    95   195     1      0.000000000000      0.124362804952                 3
    97    96    99   100     1      0.000000000000      0.483407861024                 3
    97    96    99   197     1      0.000000000000      0.483407861024                 3
    97    96    99   198     1      0.000000000000      0.483407861024                 3
    97   106   107   210     1      0.000000000000      0.762485897686                 2
    97   106   107   210     1      0.000000000000      0.124362804952                 3
    97   106   107   211     1      0.000000000000      0.762485897686                 2
    97   106   107   211     1      0.000000000000      0.124362804952                 3
    97   106   107   212     1      0.000000000000      0.762485897686                 2
    97   106   107   212     1      0.000000000000      0.124362804952                 3
    98    97    96    99     1      0.000000000000     -1.549482649691                 2
    98    97    96   196     1      0.000000000000      1.900237470334                 1
    98    97    96   196     1      0.000000000000      0.623294863345                 2
    98    97    96   196     1    180.000000000000      0.123847541423                 3
    98    97   106   107     1    180.000000000000     12.978553656010                 2
    98    97   106   107     1      0.000000000000     -1.779100933344                 1
    98    97   106   209     1    180.000000000000      9.825603686166                 2
    98    97   106   209     1      0.000000000000      5.255757435828                 1
    99    96    95   195     1      0.000000000000      0.762485897686                 2
    99    96    95   195     1      0.000000000000      0.124362804952                 3
    99    96    97   106     1      0.000000000000     -0.190866664426                 4
    99    96    97   106     1      0.000000000000      0.642700485649                 2
    99   100   101   200     1      0.000000000000      0.435413753811                 3
    99   100   101   201     1      0.000000000000      0.435413753811                 3
    99   100   101   202     1      0.000000000000      0.435413753811                 3
    99   100   102   203     1      0.000000000000      0.435413753811                 3
    99   100   102   204     1      0.000000000000      0.435413753811                 3
    99   100   102   205     1      0.000000000000      0.435413753811                 3
   100    99    96   196     1      0.000000000000      0.435413753811                 3
   101   100    99   197     1      0.000000000000      0.435413753811                 3
   101   100    99   198     1      0.000000000000      0.435413753811                 3
   101   100   102   203     1      0.000000000000      0.435413753811                 3
   101   100   102   204     1      0.000000000000      0.435413753811                 3
   101   100   102   205     1      0.000000000000      0.435413753811                 3
   102   100    99   197     1      0.000000000000      0.435413753811                 3
   102   100    99   198     1      0.000000000000      0.435413753811                 3
   102   100   101   200     1      0.000000000000      0.435413753811                 3
   102   100   101   201     1      0.000000000000      0.435413753811                 3
   102   100   101   202     1      0.000000000000      0.435413753811                 3
   103     1     2   109     1      0.000000000000      0.762485897686                 2
   103     1     2   109     1      0.000000000000      0.124362804952                 3
   104   103     1   108     1    180.000000000000      9.825603686166                 2
   104   103     1   108     1      0.000000000000      5.255757435828                 1
   104   103   105   206     1      0.000000000000      1.900237470334                 1
   104   103   105   206     1      0.000000000000      0.623294863345                 2
   104   103   105   206     1    180.000000000000      0.123847541423                 3
   104   103   105   207     1      0.000000000000      1.900237470334                 1
   104   103   105   207     1      0.000000000000      0.623294863345                 2
   104   103   105   207     1    180.000000000000      0.123847541423                 3
   104   103   105   208     1      0.000000000000      1.900237470334                 1
   104   103   105   208     1      0.000000000000      0.623294863345                 2
   104   103   105   208     1    180.000000000000      0.123847541423                 3
   105   103     1   108     1    180.000000000000      7.569054279773                 2
   105   103     1   108     1      0.000000000000     -0.201513062842                 1
   106    97    96   196     1      0.000000000000      0.111501038139                 3
   108     1     2   109     1      0.000000000000      0.762485897686                 2
   108     1     2   109     1      0.000000000000      0.124362804952                 3
   109     2     5   110     1      0.000000000000      0.799950138473                 3
   109     2     5   111     1      0.000000000000      0.799950138473                 3
   110     5     6   112     1      0.000000000000      0.799950138473                 3
   110     5     6   113     1      0.000000000000      0.799950138473                 3
   111     5     6   112     1      0.000000000000      0.799950138473                 3
   111     5     6   113     1      0.000000000000      0.799950138473                 3
   114    11    14   115     1      0.000000000000      0.799950138473                 3
   114    11    14   116     1      0.000000000000      0.799950138473                 3
   115    14    15   117     1      0.000000000000      0.799950138473                 3
   115    14    15   118     1      0.000000000000      0.799950138473                 3
   116    14    15   117     1      0.000000000000      0.799950138473                 3
   116    14    15   118     1      0.000000000000      0.799950138473                 3
   117    15    16   119     1      0.000000000000      0.799950138473                 3
   117    15    16   120     1      0.000000000000      0.799950138473                 3
   118    15    16   119     1      0.000000000000      0.799950138473                 3
   118    15    16   120     1      0.000000000000      0.799950138473                 3
   121    17    18   122     1      0.000000000000      0.762485897686                 2
   121    17    18   122     1      0.000000000000      0.124362804952                 3
   122    18    21   123     1      0.000000000000      0.799950138473                 3
   122    18    21   124     1      0.000000000000      0.799950138473                 3
   123    21    22   125     1      0.000000000000      0.799950138473                 3
   123    21    22   126     1      0.000000000000      0.799950138473                 3
   124    21    22   125     1      0.000000000000      0.799950138473                 3
   124    21    22   126     1      0.000000000000      0.799950138473                 3
   129    26    27   130     1      0.000000000000      0.762485897686                 2
   129    26    27   130     1      0.000000000000      0.124362804952                 3
   130    27    28   131     1      0.000000000000      0.799950138473                 3
   130    27    30   133     1      0.000000000000      0.799950138473                 3
   130    27    30   134     1      0.000000000000      0.799950138473                 3
   131    28    29   132     1      0.000000000000      1.266241646075                 3
   131    28    42   145     1      0.000000000000      0.852142796599                 3
   133    30    31   135     1      0.000000000000      0.799950138473                 3
   134    30    31   135     1      0.000000000000      0.799950138473                 3
   135    31    32   136     1      0.000000000000      0.799950138473                 3
   135    31    32   137     1      0.000000000000      0.799950138473                 3
   135    31    33   138     1      0.000000000000      0.799950138473                 3
   135    31    33   139     1      0.000000000000      0.799950138473                 3
   136    32    34   140     1      0.000000000000      0.799950138473                 3
   136    32    34   141     1      0.000000000000      0.799950138473                 3
   137    32    34   140     1      0.000000000000      0.799950138473                 3
   137    32    34   141     1      0.000000000000      0.799950138473                 3
   138    33    35   142     1      0.000000000000      0.799950138473                 3
   138    33    35   143     1      0.000000000000      0.799950138473                 3
   139    33    35   142     1      0.000000000000      0.799950138473                 3
   139    33    35   143     1      0.000000000000      0.799950138473                 3
   140    34    36   144     1      0.000000000000      0.799950138473                 3
   141    34    36   144     1      0.000000000000      0.799950138473                 3
   142    35    36   144     1      0.000000000000      0.799950138473                 3
   143    35    36   144     1      0.000000000000      0.799950138473                 3
   145    42    43   146     1      0.000000000000      0.852142796599                 3
   146    43    46   147     1      0.000000000000      0.799950138473                 3
   146    43    46   148     1      0.000000000000      0.799950138473                 3
   147    46    47   149     1      0.000000000000      0.799950138473                 3
   147    46    47   150     1      0.000000000000      0.799950138473                 3
   148    46    47   149     1      0.000000000000      0.799950138473                 3
   148    46    47   150     1      0.000000000000      0.799950138473                 3
   151    51    52   152     1      0.000000000000      0.762485897686                 2
   151    51    52   152     1      0.000000000000      0.124362804952                 3
   152    52    55   153     1      0.000000000000      0.799950138473                 3
   152    52    55   154     1      0.000000000000      0.799950138473                 3
   153    55    56   155     1      0.000000000000      0.799950138473                 3
   153    55    56   156     1      0.000000000000      0.799950138473                 3
   154    55    56   155     1      0.000000000000      0.799950138473                 3
   154    55    56   156     1      0.000000000000      0.799950138473                 3
   157    60    61   158     1      0.000000000000      0.762485897686                 2
   157    60    61   158     1      0.000000000000      0.124362804952                 3
   158    61    64   159     1      0.000000000000      0.799950138473                 3
   159    64    65   160     1      0.000000000000      0.799950138473                 3
   159    64    65   161     1      0.000000000000      0.799950138473                 3
   159    64    66   162     1      0.000000000000      0.799950138473                 3
   159    64    66   163     1      0.000000000000      0.799950138473                 3
   159    64    66   164     1      0.000000000000      0.799950138473                 3
   160    65    67   165     1      0.000000000000      0.799950138473                 3
   160    65    67   166     1      0.000000000000      0.799950138473                 3
   160    65    67   167     1      0.000000000000      0.799950138473                 3
   161    65    67   165     1      0.000000000000      0.799950138473                 3
   161    65    67   166     1      0.000000000000      0.799950138473                 3
   161    65    67   167     1      0.000000000000      0.799950138473                 3
   168    69    72   169     1      0.000000000000      0.799950138473                 3
   168    69    72   170     1      0.000000000000      0.799950138473                 3
   169    72    73   171     1      0.000000000000      0.799950138473                 3
   169    72    73   172     1      0.000000000000      0.799950138473                 3
   170    72    73   171     1      0.000000000000      0.799950138473                 3
   170    72    73   172     1      0.000000000000      0.799950138473                 3
   171    73    74   173     1      0.000000000000      0.799950138473                 3
   171    73    74   174     1      0.000000000000      0.799950138473                 3
   172    73    74   173     1      0.000000000000      0.799950138473                 3
   172    73    74   174     1      0.000000000000      0.799950138473                 3
   175    75    76   176     1      0.000000000000      0.762485897686                 2
   175    75    76   176     1      0.000000000000      0.124362804952                 3
   176    76    79   177     1      0.000000000000      0.799950138473                 3
   177    79    80   178     1      0.000000000000      0.799950138473                 3
   177    79    80   179     1      0.000000000000      0.799950138473                 3
   177    79    81   180     1      0.000000000000      0.799950138473                 3
   177    79    81   181     1      0.000000000000      0.799950138473                 3
   177    79    81   182     1      0.000000000000      0.799950138473                 3
   178    80    82   183     1      0.000000000000      0.799950138473                 3
   178    80    82   184     1      0.000000000000      0.799950138473                 3
   178    80    82   185     1      0.000000000000      0.799950138473                 3
   179    80    82   183     1      0.000000000000      0.799950138473                 3
   179    80    82   184     1      0.000000000000      0.799950138473                 3
   179    80    82   185     1      0.000000000000      0.799950138473                 3
   186    83    84   187     1      0.000000000000      0.762485897686                 2
   186    83    84   187     1      0.000000000000      0.124362804952                 3
   187    84    87   188     1      0.000000000000      0.799950138473                 3
   187    84    87   189     1      0.000000000000      0.799950138473                 3
   190    89    91   192     1    180.000000000000     15.321515534534                 2
   191    90    92   193     1    180.000000000000     15.321515534534                 2
   195    95    96   196     1      0.000000000000      0.762485897686                 2
   195    95    96   196     1      0.000000000000      0.124362804952                 3
   196    96    99   197     1      0.000000000000      0.799950138473                 3
   196    96    99   198     1      0.000000000000      0.799950138473                 3
   197    99   100   199     1      0.000000000000      0.799950138473                 3
   198    99   100   199     1      0.000000000000      0.799950138473                 3
   199   100   101   200     1      0.000000000000      0.799950138473                 3
   199   100   101   201     1      0.000000000000      0.799950138473                 3
   199   100   101   202     1      0.000000000000      0.799950138473                 3
   199   100   102   203     1      0.000000000000      0.799950138473                 3
   199   100   102   204     1      0.000000000000      0.799950138473                 3
   199   100   102   205     1      0.000000000000      0.799950138473                 3
   209   106   107   210     1      0.000000000000      0.762485897686                 2
   209   106   107   210     1      0.000000000000      0.124362804952                 3
   209   106   107   211     1      0.000000000000      0.762485897686                 2
   209   106   107   211     1      0.000000000000      0.124362804952                 3
   209   106   107   212     1      0.000000000000      0.762485897686                 2
   209   106   107   212     1      0.000000000000      0.124362804952                 3
    62    63    68    61     4    180.000000000000      1.534133333333                 2
    93    91    92    94     4    180.000000000000      1.534133333333                 2
    75    70    76   175     4    180.000000000000      1.394666666667                 2
    48    47    49    50     4    180.000000000000     14.644000000000                 2
    95    85    96   195     4    180.000000000000      1.394666666667                 2
    44    45    51    43     4    180.000000000000      1.534133333333                 2
    77    76    78    83     4    180.000000000000      1.534133333333                 2
    92   193    90    93     4    180.000000000000      1.534133333333                 2
    26   129    19    27     4    180.000000000000      1.394666666667                 2
    23    25    22    24     4    180.000000000000      1.534133333333                 2
    93    94    91    92     4    180.000000000000      1.534133333333                 2
    53    52    54    60     4    180.000000000000      1.534133333333                 2
    24   128    23   127     4    180.000000000000      1.394666666667                 2
    85    84    86    95     4    180.000000000000      1.534133333333                 2
    48    49    50    47     4    180.000000000000     14.644000000000                 2
    91    93   192    89     4    180.000000000000      1.534133333333                 2
   106   209    97   107     4    180.000000000000      1.394666666667                 2
    57    59    56    58     4    180.000000000000     14.644000000000                 2
    24   127   128    23     4    180.000000000000      1.394666666667                 2
    12    17    11    13     4    180.000000000000      1.534133333333                 2
    97    98   106    96     4    180.000000000000      1.534133333333                 2
    19    18    20    26     4    180.000000000000      1.534133333333                 2
    92    93   193    90     4    180.000000000000      1.534133333333                 2
    83   186    77    84     4    180.000000000000      1.394666666667                 2
     3    10     2     4     4    180.000000000000      1.534133333333                 2
    70    69    71    75     4    180.000000000000      1.534133333333                 2
    26    19    27   129     4    180.000000000000      1.394666666667                 2
    12    13    17    11     4    180.000000000000      1.534133333333                 2
    53    54    60    52     4    180.000000000000      1.534133333333                 2
    19    20    26    18     4    180.000000000000      1.534133333333                 2
    51    44    52   151     4    180.000000000000      1.394666666667                 2
    95    96   195    85     4    180.000000000000      1.394666666667                 2
    60    61   157    53     4    180.000000000000      1.394666666667                 2
    93    92    94    91     4    180.000000000000      1.534133333333                 2
    19    26    18    20     4    180.000000000000      1.534133333333                 2
    97    96    98   106     4    180.000000000000      1.534133333333                 2
    24    23   127   128     4    180.000000000000      1.394666666667                 2
    88    87    89    90     4    180.000000000000      1.534133333333                 2
    85    95    84    86     4    180.000000000000      1.534133333333                 2
    75    76   175    70     4    180.000000000000      1.394666666667                 2
    89   190    88    91     4    180.000000000000      1.534133333333                 2
    90   191    88    92     4    180.000000000000      1.534133333333                 2
    57    56    58    59     4    180.000000000000     14.644000000000                 2
    90    92   191    88     4    180.000000000000      1.534133333333                 2
   103     1   104   105     4    180.000000000000      1.534133333333                 2
    62    68    61    63     4    180.000000000000      1.534133333333                 2
    53    60    52    54     4    180.000000000000      1.534133333333                 2
    88    90    87    89     4    180.000000000000      1.534133333333                 2
    44    51    43    45     4    180.000000000000      1.534133333333                 2
    91    89    93   192     4    180.000000000000      1.534133333333                 2
    10     3    11    16     4    180.000000000000      1.394666666667                 2
    10    11    16     3     4    180.000000000000      1.394666666667                 2
    85    86    95    84     4    180.000000000000      1.534133333333                 2
    48    50    47    49     4    180.000000000000     14.644000000000                 2
    89    88    91   190     4    180.000000000000      1.534133333333                 2
    68    74    62    69     4    180.000000000000      1.394666666667                 2
    83    77    84   186     4    180.000000000000      1.394666666667                 2
     7     8     9     6     4    180.000000000000     14.644000000000                 2
     3     4    10     2     4    180.000000000000      1.534133333333                 2
    88    89    90    87     4    180.000000000000      1.534133333333                 2
    97   106    96    98     4    180.000000000000      1.534133333333                 2
     1   108     2   103     4    180.000000000000      1.394666666667                 2
    68    69    74    62     4    180.000000000000      1.394666666667                 2
    17   121    12    18     4    180.000000000000      1.394666666667                 2
    10    16     3    11     4    180.000000000000      1.394666666667                 2
    60   157    53    61     4    180.000000000000      1.394666666667                 2
    60    53    61   157     4    180.000000000000      1.394666666667                 2
    77    83    76    78     4    180.000000000000      1.534133333333                 2
    57    58    59    56     4    180.000000000000     14.644000000000                 2
    23    24    25    22     4    180.000000000000      1.534133333333                 2
    44    43    45    51     4    180.000000000000      1.534133333333                 2
    89    91   190    88     4    180.000000000000      1.534133333333                 2
   106   107   209    97     4    180.000000000000      1.394666666667                 2
    77    78    83    76     4    180.000000000000      1.534133333333                 2
   103   105     1   104     4    180.000000000000      1.534133333333                 2
     7     9     6     8     4    180.000000000000     14.644000000000                 2
     7     6     8     9     4    180.000000000000     14.644000000000                 2
    51   151    44    52     4    180.000000000000      1.394666666667                 2
   106    97   107   209     4    180.000000000000      1.394666666667                 2
    70    71    75    69     4    180.000000000000      1.534133333333                 2
    95   195    85    96     4    180.000000000000      1.394666666667                 2
    12    11    13    17     4    180.000000000000      1.534133333333                 2
    26    27   129    19     4    180.000000000000      1.394666666667                 2
    68    62    69    74     4    180.000000000000      1.394666666667                 2
     1     2   103   108     4    180.000000000000      1.394666666667                 2
    92    90    93   193     4    180.000000000000      1.534133333333                 2
    62    61    63    68     4    180.000000000000      1.534133333333                 2
     1   103   108     2     4    180.000000000000      1.394666666667                 2
    51    52   151    44     4    180.000000000000      1.394666666667                 2
    83    84   186    77     4    180.000000000000      1.394666666667                 2
     3     2     4    10     4    180.000000000000      1.534133333333                 2
    90    88    92   191     4    180.000000000000      1.534133333333                 2
    17    18   121    12     4    180.000000000000      1.394666666667                 2
    17    12    18   121     4    180.000000000000      1.394666666667                 2
    91   192    89    93     4    180.000000000000      1.534133333333                 2
    23    22    24    25     4    180.000000000000      1.534133333333                 2
   103   104   105     1     4    180.000000000000      1.534133333333                 2
    70    75    69    71     4    180.000000000000      1.534133333333                 2
    75   175    70    76     4    180.000000000000      1.394666666667                 2

[ settles ]
;i  funct   dOH  dHH


[ exclusions ]
;ai    aj

