[ atomtypes ]
;type, bondingtype, atomic_number, mass, charge, ptype, sigma, epsilon
protein_0  	     7	14.00672	0.0000000000000000	A    	0.3249998524031035	0.7112799996555186
protein_1  	     1	1.007947	0.0000000000000000	A    	0.1069078461720523	0.06568880001765333
protein_2  	     1	1.007947	0.0000000000000000	A    	0.1069078461720523	0.06568880001765333
protein_3  	     1	1.007947	0.0000000000000000	A    	0.1069078461720523	0.06568880001765333
protein_4  	     6	12.01078	0.0000000000000000	A    	0.339966950845074	0.4577295996474049
protein_5  	     1	1.007947	0.0000000000000000	A    	0.1959977179007358	0.06568880026244604
protein_6  	     6	12.01078	0.0000000000000000	A    	0.3399669507944831	0.3598240005370534
protein_7  	     8	15.99943	0.0000000000000000	A    	0.2959921901644686	0.8786399993381852
protein_8  	     6	12.01078	0.0000000000000000	A    	0.339966950845074	0.4577295996474049
protein_9  	     1	1.007947	0.0000000000000000	A    	0.2649532787260222	0.06568880010977264
protein_10 	     1	1.007947	0.0000000000000000	A    	0.2649532787260222	0.06568880010977264
protein_11 	     6	12.01078	0.0000000000000000	A    	0.3399669507944831	0.3598240005370534
protein_12 	     8	15.99943	0.0000000000000000	A    	0.2959921901644686	0.8786399993381852
protein_13 	     8	15.99943	0.0000000000000000	A    	0.2959921901644686	0.8786399993381852
protein_14 	     7	14.00672	0.0000000000000000	A    	0.3249998524031035	0.7112799996555186
protein_15 	     1	1.007947	0.0000000000000000	A    	0.1069078461720523	0.06568880001765333
protein_16 	     6	12.01078	0.0000000000000000	A    	0.339966950845074	0.4577295996474049
protein_17 	     1	1.007947	0.0000000000000000	A    	0.2471353042642165	0.06568880041196259
protein_18 	     6	12.01078	0.0000000000000000	A    	0.3399669507944831	0.3598240005370534
protein_19 	     8	15.99943	0.0000000000000000	A    	0.2959921901644686	0.8786399993381852
protein_20 	     6	12.01078	0.0000000000000000	A    	0.339966950845074	0.4577295996474049
protein_21 	     1	1.007947	0.0000000000000000	A    	0.2471353042642165	0.06568880041196259
protein_22 	     1	1.007947	0.0000000000000000	A    	0.2471353042642165	0.06568880041196259
protein_23 	     8	15.99943	0.0000000000000000	A    	0.3066473387458142	0.8803136010405576
protein_24 	     1	1.007947	0.0000000000000000	A    	0	0
protein_25 	     7	14.00672	0.0000000000000000	A    	0.3249998524031035	0.7112799996555186
protein_26 	     1	1.007947	0.0000000000000000	A    	0.1069078461720523	0.06568880001765333
protein_27 	     6	12.01078	0.0000000000000000	A    	0.339966950845074	0.4577295996474049
protein_28 	     1	1.007947	0.0000000000000000	A    	0.2471353042642165	0.06568880041196259
protein_29 	     6	12.01078	0.0000000000000000	A    	0.3399669507944831	0.3598240005370534
protein_30 	     8	15.99943	0.0000000000000000	A    	0.2959921901644686	0.8786399993381852
protein_31 	     6	12.01078	0.0000000000000000	A    	0.339966950845074	0.4577295996474049
protein_32 	     1	1.007947	0.0000000000000000	A    	0.2649532787260222	0.06568880010977264
protein_33 	     6	12.01078	0.0000000000000000	A    	0.339966950845074	0.4577295996474049
protein_34 	     1	1.007947	0.0000000000000000	A    	0.2649532787260222	0.06568880010977264
protein_35 	     1	1.007947	0.0000000000000000	A    	0.2649532787260222	0.06568880010977264
protein_36 	     6	12.01078	0.0000000000000000	A    	0.339966950845074	0.4577295996474049
protein_37 	     1	1.007947	0.0000000000000000	A    	0.2649532787260222	0.06568880010977264
protein_38 	     1	1.007947	0.0000000000000000	A    	0.2649532787260222	0.06568880010977264
protein_39 	     1	1.007947	0.0000000000000000	A    	0.2649532787260222	0.06568880010977264
protein_40 	     6	12.01078	0.0000000000000000	A    	0.339966950845074	0.4577295996474049
protein_41 	     1	1.007947	0.0000000000000000	A    	0.2649532787260222	0.06568880010977264
protein_42 	     1	1.007947	0.0000000000000000	A    	0.2649532787260222	0.06568880010977264
protein_43 	     1	1.007947	0.0000000000000000	A    	0.2649532787260222	0.06568880010977264
protein_44 	     7	14.00672	0.0000000000000000	A    	0.3249998524031035	0.7112799996555186
protein_45 	     1	1.007947	0.0000000000000000	A    	0.1069078461720523	0.06568880001765333
protein_46 	     6	12.01078	0.0000000000000000	A    	0.339966950845074	0.4577295996474049
protein_47 	     1	1.007947	0.0000000000000000	A    	0.2471353042642165	0.06568880041196259
protein_48 	     6	12.01078	0.0000000000000000	A    	0.3399669507944831	0.3598240005370534
protein_49 	     8	15.99943	0.0000000000000000	A    	0.2959921901644686	0.8786399993381852
protein_50 	     6	12.01078	0.0000000000000000	A    	0.339966950845074	0.4577295996474049
protein_51 	     1	1.007947	0.0000000000000000	A    	0.2649532787260222	0.06568880010977264
protein_52 	     1	1.007947	0.0000000000000000	A    	0.2649532787260222	0.06568880010977264
protein_53 	     6	12.01078	0.0000000000000000	A    	0.339966950845074	0.4577295996474049
protein_54 	     1	1.007947	0.0000000000000000	A    	0.2649532787260222	0.06568880010977264
protein_55 	     1	1.007947	0.0000000000000000	A    	0.2649532787260222	0.06568880010977264
protein_56 	     6	12.01078	0.0000000000000000	A    	0.3399669507944831	0.3598240005370534
protein_57 	     7	14.00672	0.0000000000000000	A    	0.3249998524031035	0.7112799996555186
protein_58 	     1	1.007947	0.0000000000000000	A    	0.1069078461720523	0.06568880001765333
protein_59 	     1	1.007947	0.0000000000000000	A    	0.1069078461720523	0.06568880001765333
protein_60 	     8	15.99943	0.0000000000000000	A    	0.2959921901644686	0.8786399993381852
protein_61 	     7	14.00672	0.0000000000000000	A    	0.3249998524031035	0.7112799996555186
protein_62 	     1	1.007947	0.0000000000000000	A    	0.1069078461720523	0.06568880001765333
protein_63 	     6	12.01078	0.0000000000000000	A    	0.339966950845074	0.4577295996474049
protein_64 	     1	1.007947	0.0000000000000000	A    	0.2471353042642165	0.06568880041196259
protein_65 	     6	12.01078	0.0000000000000000	A    	0.3399669507944831	0.3598240005370534
protein_66 	     8	15.99943	0.0000000000000000	A    	0.2959921901644686	0.8786399993381852
protein_67 	     6	12.01078	0.0000000000000000	A    	0.339966950845074	0.4577295996474049
protein_68 	     1	1.007947	0.0000000000000000	A    	0.2649532787260222	0.06568880010977264
protein_69 	     1	1.007947	0.0000000000000000	A    	0.2649532787260222	0.06568880010977264
protein_70 	     1	1.007947	0.0000000000000000	A    	0.2649532787260222	0.06568880010977264
protein_71 	     7	14.00672	0.0000000000000000	A    	0.3249998524031035	0.7112799996555186
protein_72 	     1	1.007947	0.0000000000000000	A    	0.1069078461720523	0.06568880001765333
protein_73 	     6	12.01078	0.0000000000000000	A    	0.339966950845074	0.4577295996474049
protein_74 	     1	1.007947	0.0000000000000000	A    	0.2471353042642165	0.06568880041196259
protein_75 	     6	12.01078	0.0000000000000000	A    	0.3399669507944831	0.3598240005370534
protein_76 	     8	15.99943	0.0000000000000000	A    	0.2959921901644686	0.8786399993381852
protein_77 	     6	12.01078	0.0000000000000000	A    	0.339966950845074	0.4577295996474049
protein_78 	     1	1.007947	0.0000000000000000	A    	0.2649532787260222	0.06568880010977264
protein_79 	     1	1.007947	0.0000000000000000	A    	0.2649532787260222	0.06568880010977264
protein_80 	     6	12.01078	0.0000000000000000	A    	0.339966950845074	0.4577295996474049
protein_81 	     1	1.007947	0.0000000000000000	A    	0.2649532787260222	0.06568880010977264
protein_82 	     1	1.007947	0.0000000000000000	A    	0.2649532787260222	0.06568880010977264
protein_83 	     6	12.01078	0.0000000000000000	A    	0.3399669507944831	0.3598240005370534
protein_84 	     8	15.99943	0.0000000000000000	A    	0.2959921901644686	0.8786399993381852
protein_85 	     8	15.99943	0.0000000000000000	A    	0.2959921901644686	0.8786399993381852
protein_86 	     7	14.00672	0.0000000000000000	A    	0.3249998524031035	0.7112799996555186
protein_87 	     1	1.007947	0.0000000000000000	A    	0.1069078461720523	0.06568880001765333
protein_88 	     6	12.01078	0.0000000000000000	A    	0.339966950845074	0.4577295996474049
protein_89 	     1	1.007947	0.0000000000000000	A    	0.2471353042642165	0.06568880041196259
protein_90 	     6	12.01078	0.0000000000000000	A    	0.3399669507944831	0.3598240005370534
protein_91 	     8	15.99943	0.0000000000000000	A    	0.2959921901644686	0.8786399993381852
protein_92 	     6	12.01078	0.0000000000000000	A    	0.339966950845074	0.4577295996474049
protein_93 	     1	1.007947	0.0000000000000000	A    	0.2649532787260222	0.06568880010977264
protein_94 	     1	1.007947	0.0000000000000000	A    	0.2649532787260222	0.06568880010977264
protein_95 	     6	12.01078	0.0000000000000000	A    	0.339966950845074	0.4577295996474049
protein_96 	     1	1.007947	0.0000000000000000	A    	0.2649532787260222	0.06568880010977264
protein_97 	     1	1.007947	0.0000000000000000	A    	0.2649532787260222	0.06568880010977264
protein_98 	     6	12.01078	0.0000000000000000	A    	0.3399669507944831	0.3598240005370534
protein_99 	     8	15.99943	0.0000000000000000	A    	0.2959921901644686	0.8786399993381852
protein_100	     8	15.99943	0.0000000000000000	A    	0.2959921901644686	0.8786399993381852
protein_101	     7	14.00672	0.0000000000000000	A    	0.3249998524031035	0.7112799996555186
protein_102	     1	1.007947	0.0000000000000000	A    	0.1069078461720523	0.06568880001765333
protein_103	     6	12.01078	0.0000000000000000	A    	0.339966950845074	0.4577295996474049
protein_104	     1	1.007947	0.0000000000000000	A    	0.2471353042642165	0.06568880041196259
protein_105	     6	12.01078	0.0000000000000000	A    	0.3399669507944831	0.3598240005370534
protein_106	     8	15.99943	0.0000000000000000	A    	0.2959921901644686	0.8786399993381852
protein_107	     6	12.01078	0.0000000000000000	A    	0.339966950845074	0.4577295996474049
protein_108	     1	1.007947	0.0000000000000000	A    	0.2649532787260222	0.06568880010977264
protein_109	     1	1.007947	0.0000000000000000	A    	0.2649532787260222	0.06568880010977264
protein_110	     6	12.01078	0.0000000000000000	A    	0.3399669507944831	0.3598240005370534
protein_111	     6	12.01078	0.0000000000000000	A    	0.3399669507944831	0.3598240005370534
protein_112	     1	1.007947	0.0000000000000000	A    	0.2510552587583135	0.06275999996435834
protein_113	     6	12.01078	0.0000000000000000	A    	0.3399669507944831	0.3598240005370534
protein_114	     6	12.01078	0.0000000000000000	A    	0.3399669507944831	0.3598240005370534
protein_115	     6	12.01078	0.0000000000000000	A    	0.3399669507944831	0.3598240005370534
protein_116	     1	1.007947	0.0000000000000000	A    	0.2599642458735085	0.06276000026869927
protein_117	     7	14.00672	0.0000000000000000	A    	0.3249998524031035	0.7112799996555186
protein_118	     1	1.007947	0.0000000000000000	A    	0.1069078461720523	0.06568880001765333
protein_119	     6	12.01078	0.0000000000000000	A    	0.3399669507944831	0.3598240005370534
protein_120	     1	1.007947	0.0000000000000000	A    	0.2599642458735085	0.06276000026869927
protein_121	     6	12.01078	0.0000000000000000	A    	0.3399669507944831	0.3598240005370534
protein_122	     1	1.007947	0.0000000000000000	A    	0.2599642458735085	0.06276000026869927
protein_123	     6	12.01078	0.0000000000000000	A    	0.3399669507944831	0.3598240005370534
protein_124	     1	1.007947	0.0000000000000000	A    	0.2599642458735085	0.06276000026869927
protein_125	     7	14.00672	0.0000000000000000	A    	0.3249998524031035	0.7112799996555186
protein_126	     1	1.007947	0.0000000000000000	A    	0.1069078461720523	0.06568880001765333
protein_127	     6	12.01078	0.0000000000000000	A    	0.339966950845074	0.4577295996474049
protein_128	     1	1.007947	0.0000000000000000	A    	0.2471353042642165	0.06568880041196259
protein_129	     6	12.01078	0.0000000000000000	A    	0.3399669507944831	0.3598240005370534
protein_130	     8	15.99943	0.0000000000000000	A    	0.2959921901644686	0.8786399993381852
protein_131	     6	12.01078	0.0000000000000000	A    	0.339966950845074	0.4577295996474049
protein_132	     1	1.007947	0.0000000000000000	A    	0.2649532787260222	0.06568880010977264
protein_133	     1	1.007947	0.0000000000000000	A    	0.2649532787260222	0.06568880010977264
protein_134	     6	12.01078	0.0000000000000000	A    	0.3399669507944831	0.3598240005370534
protein_135	     6	12.01078	0.0000000000000000	A    	0.3399669507944831	0.3598240005370534
protein_136	     1	1.007947	0.0000000000000000	A    	0.2599642458735085	0.06276000026869927
protein_137	     6	12.01078	0.0000000000000000	A    	0.3399669507944831	0.3598240005370534
protein_138	     1	1.007947	0.0000000000000000	A    	0.2599642458735085	0.06276000026869927
protein_139	     6	12.01078	0.0000000000000000	A    	0.3399669507944831	0.3598240005370534
protein_140	     1	1.007947	0.0000000000000000	A    	0.2599642458735085	0.06276000026869927
protein_141	     6	12.01078	0.0000000000000000	A    	0.3399669507944831	0.3598240005370534
protein_142	     1	1.007947	0.0000000000000000	A    	0.2599642458735085	0.06276000026869927
protein_143	     6	12.01078	0.0000000000000000	A    	0.3399669507944831	0.3598240005370534
protein_144	     8	15.99943	0.0000000000000000	A    	0.3066473387458142	0.8803136010405576
protein_145	     1	1.007947	0.0000000000000000	A    	0	0
protein_146	     7	14.00672	0.0000000000000000	A    	0.3249998524031035	0.7112799996555186
protein_147	     1	1.007947	0.0000000000000000	A    	0.1069078461720523	0.06568880001765333
protein_148	     6	12.01078	0.0000000000000000	A    	0.339966950845074	0.4577295996474049
protein_149	     1	1.007947	0.0000000000000000	A    	0.2471353042642165	0.06568880041196259
protein_150	     6	12.01078	0.0000000000000000	A    	0.3399669507944831	0.3598240005370534
protein_151	     8	15.99943	0.0000000000000000	A    	0.2959921901644686	0.8786399993381852
protein_152	     6	12.01078	0.0000000000000000	A    	0.339966950845074	0.4577295996474049
protein_153	     1	1.007947	0.0000000000000000	A    	0.2649532787260222	0.06568880010977264
protein_154	     1	1.007947	0.0000000000000000	A    	0.2649532787260222	0.06568880010977264
protein_155	     6	12.01078	0.0000000000000000	A    	0.3399669507944831	0.3598240005370534
protein_156	     6	12.01078	0.0000000000000000	A    	0.3399669507944831	0.3598240005370534
protein_157	     1	1.007947	0.0000000000000000	A    	0.2599642458735085	0.06276000026869927
protein_158	     6	12.01078	0.0000000000000000	A    	0.3399669507944831	0.3598240005370534
protein_159	     1	1.007947	0.0000000000000000	A    	0.2599642458735085	0.06276000026869927
protein_160	     6	12.01078	0.0000000000000000	A    	0.3399669507944831	0.3598240005370534
protein_161	     1	1.007947	0.0000000000000000	A    	0.2599642458735085	0.06276000026869927
protein_162	     6	12.01078	0.0000000000000000	A    	0.3399669507944831	0.3598240005370534
protein_163	     1	1.007947	0.0000000000000000	A    	0.2599642458735085	0.06276000026869927
protein_164	     6	12.01078	0.0000000000000000	A    	0.3399669507944831	0.3598240005370534
protein_165	     1	1.007947	0.0000000000000000	A    	0.2599642458735085	0.06276000026869927
protein_166	     7	14.00672	0.0000000000000000	A    	0.3249998524031035	0.7112799996555186
protein_167	     1	1.007947	0.0000000000000000	A    	0.1069078461720523	0.06568880001765333
protein_168	     6	12.01078	0.0000000000000000	A    	0.339966950845074	0.4577295996474049
protein_169	     1	1.007947	0.0000000000000000	A    	0.2471353042642165	0.06568880041196259
protein_170	     1	1.007947	0.0000000000000000	A    	0.2471353042642165	0.06568880041196259
protein_171	     6	12.01078	0.0000000000000000	A    	0.3399669507944831	0.3598240005370534
protein_172	     8	15.99943	0.0000000000000000	A    	0.2959921901644686	0.8786399993381852
protein_173	     7	14.00672	0.0000000000000000	A    	0.3249998524031035	0.7112799996555186
protein_174	     1	1.007947	0.0000000000000000	A    	0.1069078461720523	0.06568880001765333
protein_175	     6	12.01078	0.0000000000000000	A    	0.339966950845074	0.4577295996474049
protein_176	     1	1.007947	0.0000000000000000	A    	0.2471353042642165	0.06568880041196259
protein_177	     6	12.01078	0.0000000000000000	A    	0.3399669507944831	0.3598240005370534
protein_178	     8	15.99943	0.0000000000000000	A    	0.2959921901644686	0.8786399993381852
protein_179	     6	12.01078	0.0000000000000000	A    	0.339966950845074	0.4577295996474049
protein_180	     1	1.007947	0.0000000000000000	A    	0.2649532787260222	0.06568880010977264
protein_181	     1	1.007947	0.0000000000000000	A    	0.2649532787260222	0.06568880010977264
protein_182	     6	12.01078	0.0000000000000000	A    	0.339966950845074	0.4577295996474049
protein_183	     1	1.007947	0.0000000000000000	A    	0.2649532787260222	0.06568880010977264
protein_184	     1	1.007947	0.0000000000000000	A    	0.2649532787260222	0.06568880010977264
protein_185	     6	12.01078	0.0000000000000000	A    	0.339966950845074	0.4577295996474049
protein_186	     1	1.007947	0.0000000000000000	A    	0.2649532787260222	0.06568880010977264
protein_187	     1	1.007947	0.0000000000000000	A    	0.2649532787260222	0.06568880010977264
protein_188	     6	12.01078	0.0000000000000000	A    	0.339966950845074	0.4577295996474049
protein_189	     1	1.007947	0.0000000000000000	A    	0.1959977179007358	0.06568880026244604
protein_190	     1	1.007947	0.0000000000000000	A    	0.1959977179007358	0.06568880026244604
protein_191	     7	14.00672	0.0000000000000000	A    	0.3249998524031035	0.7112799996555186
protein_192	     1	1.007947	0.0000000000000000	A    	0.1069078461720523	0.06568880001765333
protein_193	     1	1.007947	0.0000000000000000	A    	0.1069078461720523	0.06568880001765333
protein_194	     1	1.007947	0.0000000000000000	A    	0.1069078461720523	0.06568880001765333
protein_195	     7	14.00672	0.0000000000000000	A    	0.3249998524031035	0.7112799996555186
protein_196	     1	1.007947	0.0000000000000000	A    	0.1069078461720523	0.06568880001765333
protein_197	     6	12.01078	0.0000000000000000	A    	0.339966950845074	0.4577295996474049
protein_198	     1	1.007947	0.0000000000000000	A    	0.2471353042642165	0.06568880041196259
protein_199	     6	12.01078	0.0000000000000000	A    	0.3399669507944831	0.3598240005370534
protein_200	     8	15.99943	0.0000000000000000	A    	0.2959921901644686	0.8786399993381852
protein_201	     6	12.01078	0.0000000000000000	A    	0.339966950845074	0.4577295996474049
protein_202	     1	1.007947	0.0000000000000000	A    	0.2649532787260222	0.06568880010977264
protein_203	     6	12.01078	0.0000000000000000	A    	0.339966950845074	0.4577295996474049
protein_204	     1	1.007947	0.0000000000000000	A    	0.2649532787260222	0.06568880010977264
protein_205	     1	1.007947	0.0000000000000000	A    	0.2649532787260222	0.06568880010977264
protein_206	     6	12.01078	0.0000000000000000	A    	0.339966950845074	0.4577295996474049
protein_207	     1	1.007947	0.0000000000000000	A    	0.2649532787260222	0.06568880010977264
protein_208	     1	1.007947	0.0000000000000000	A    	0.2649532787260222	0.06568880010977264
protein_209	     1	1.007947	0.0000000000000000	A    	0.2649532787260222	0.06568880010977264
protein_210	     6	12.01078	0.0000000000000000	A    	0.339966950845074	0.4577295996474049
protein_211	     1	1.007947	0.0000000000000000	A    	0.2649532787260222	0.06568880010977264
protein_212	     1	1.007947	0.0000000000000000	A    	0.2649532787260222	0.06568880010977264
protein_213	     1	1.007947	0.0000000000000000	A    	0.2649532787260222	0.06568880010977264
protein_214	     7	14.00672	0.0000000000000000	A    	0.3249998524031035	0.7112799996555186
protein_215	     1	1.007947	0.0000000000000000	A    	0.1069078461720523	0.06568880001765333
protein_216	     6	12.01078	0.0000000000000000	A    	0.339966950845074	0.4577295996474049
protein_217	     1	1.007947	0.0000000000000000	A    	0.2471353042642165	0.06568880041196259
protein_218	     6	12.01078	0.0000000000000000	A    	0.3399669507944831	0.3598240005370534
protein_219	     8	15.99943	0.0000000000000000	A    	0.2959921901644686	0.8786399993381852
protein_220	     6	12.01078	0.0000000000000000	A    	0.339966950845074	0.4577295996474049
protein_221	     1	1.007947	0.0000000000000000	A    	0.2471353042642165	0.06568880041196259
protein_222	     6	12.01078	0.0000000000000000	A    	0.339966950845074	0.4577295996474049
protein_223	     1	1.007947	0.0000000000000000	A    	0.2649532787260222	0.06568880010977264
protein_224	     1	1.007947	0.0000000000000000	A    	0.2649532787260222	0.06568880010977264
protein_225	     1	1.007947	0.0000000000000000	A    	0.2649532787260222	0.06568880010977264
protein_226	     8	15.99943	0.0000000000000000	A    	0.3066473387458142	0.8803136010405576
protein_227	     1	1.007947	0.0000000000000000	A    	0	0
protein_228	     7	14.00672	0.0000000000000000	A    	0.3249998524031035	0.7112799996555186
protein_229	     1	1.007947	0.0000000000000000	A    	0.1069078461720523	0.06568880001765333
protein_230	     6	12.01078	0.0000000000000000	A    	0.339966950845074	0.4577295996474049
protein_231	     1	1.007947	0.0000000000000000	A    	0.2471353042642165	0.06568880041196259
protein_232	     6	12.01078	0.0000000000000000	A    	0.3399669507944831	0.3598240005370534
protein_233	     8	15.99943	0.0000000000000000	A    	0.2959921901644686	0.8786399993381852
protein_234	     6	12.01078	0.0000000000000000	A    	0.339966950845074	0.4577295996474049
protein_235	     1	1.007947	0.0000000000000000	A    	0.2649532787260222	0.06568880010977264
protein_236	     1	1.007947	0.0000000000000000	A    	0.2649532787260222	0.06568880010977264
protein_237	     6	12.01078	0.0000000000000000	A    	0.339966950845074	0.4577295996474049
protein_238	     1	1.007947	0.0000000000000000	A    	0.2649532787260222	0.06568880010977264
protein_239	     1	1.007947	0.0000000000000000	A    	0.2649532787260222	0.06568880010977264
protein_240	     6	12.01078	0.0000000000000000	A    	0.339966950845074	0.4577295996474049
protein_241	     1	1.007947	0.0000000000000000	A    	0.2471353042642165	0.06568880041196259
protein_242	     1	1.007947	0.0000000000000000	A    	0.2471353042642165	0.06568880041196259
protein_243	     7	14.00672	0.0000000000000000	A    	0.3249998524031035	0.7112799996555186
protein_244	     1	1.007947	0.0000000000000000	A    	0.1069078461720523	0.06568880001765333
protein_245	     6	12.01078	0.0000000000000000	A    	0.3399669507944831	0.3598240005370534
protein_246	     7	14.00672	0.0000000000000000	A    	0.3249998524031035	0.7112799996555186
protein_247	     1	1.007947	0.0000000000000000	A    	0.1069078461720523	0.06568880001765333
protein_248	     1	1.007947	0.0000000000000000	A    	0.1069078461720523	0.06568880001765333
protein_249	     7	14.00672	0.0000000000000000	A    	0.3249998524031035	0.7112799996555186
protein_250	     1	1.007947	0.0000000000000000	A    	0.1069078461720523	0.06568880001765333
protein_251	     1	1.007947	0.0000000000000000	A    	0.1069078461720523	0.06568880001765333
protein_252	     7	14.00672	0.0000000000000000	A    	0.3249998524031035	0.7112799996555186
protein_253	     1	1.007947	0.0000000000000000	A    	0.1069078461720523	0.06568880001765333
protein_254	     6	12.01078	0.0000000000000000	A    	0.339966950845074	0.4577295996474049
protein_255	     1	1.007947	0.0000000000000000	A    	0.2471353042642165	0.06568880041196259
protein_256	     6	12.01078	0.0000000000000000	A    	0.3399669507944831	0.3598240005370534
protein_257	     8	15.99943	0.0000000000000000	A    	0.2959921901644686	0.8786399993381852
protein_258	     6	12.01078	0.0000000000000000	A    	0.339966950845074	0.4577295996474049
protein_259	     1	1.007947	0.0000000000000000	A    	0.2649532787260222	0.06568880010977264
protein_260	     1	1.007947	0.0000000000000000	A    	0.2649532787260222	0.06568880010977264
protein_261	     6	12.01078	0.0000000000000000	A    	0.339966950845074	0.4577295996474049
protein_262	     1	1.007947	0.0000000000000000	A    	0.2649532787260222	0.06568880010977264
protein_263	     1	1.007947	0.0000000000000000	A    	0.2649532787260222	0.06568880010977264
protein_264	     6	12.01078	0.0000000000000000	A    	0.339966950845074	0.4577295996474049
protein_265	     1	1.007947	0.0000000000000000	A    	0.2471353042642165	0.06568880041196259
protein_266	     1	1.007947	0.0000000000000000	A    	0.2471353042642165	0.06568880041196259
protein_267	     7	14.00672	0.0000000000000000	A    	0.3249998524031035	0.7112799996555186
protein_268	     1	1.007947	0.0000000000000000	A    	0.1069078461720523	0.06568880001765333
protein_269	     6	12.01078	0.0000000000000000	A    	0.3399669507944831	0.3598240005370534
protein_270	     7	14.00672	0.0000000000000000	A    	0.3249998524031035	0.7112799996555186
protein_271	     1	1.007947	0.0000000000000000	A    	0.1069078461720523	0.06568880001765333
protein_272	     1	1.007947	0.0000000000000000	A    	0.1069078461720523	0.06568880001765333
protein_273	     7	14.00672	0.0000000000000000	A    	0.3249998524031035	0.7112799996555186
protein_274	     1	1.007947	0.0000000000000000	A    	0.1069078461720523	0.06568880001765333
protein_275	     1	1.007947	0.0000000000000000	A    	0.1069078461720523	0.06568880001765333
protein_276	     7	14.00672	0.0000000000000000	A    	0.3249998524031035	0.7112799996555186
protein_277	     1	1.007947	0.0000000000000000	A    	0.1069078461720523	0.06568880001765333
protein_278	     6	12.01078	0.0000000000000000	A    	0.339966950845074	0.4577295996474049
protein_279	     1	1.007947	0.0000000000000000	A    	0.2471353042642165	0.06568880041196259
protein_280	     6	12.01078	0.0000000000000000	A    	0.3399669507944831	0.3598240005370534
protein_281	     8	15.99943	0.0000000000000000	A    	0.2959921901644686	0.8786399993381852
protein_282	     6	12.01078	0.0000000000000000	A    	0.339966950845074	0.4577295996474049
protein_283	     1	1.007947	0.0000000000000000	A    	0.2649532787260222	0.06568880010977264
protein_284	     1	1.007947	0.0000000000000000	A    	0.2649532787260222	0.06568880010977264
protein_285	     6	12.01078	0.0000000000000000	A    	0.339966950845074	0.4577295996474049
protein_286	     1	1.007947	0.0000000000000000	A    	0.2649532787260222	0.06568880010977264
protein_287	     1	1.007947	0.0000000000000000	A    	0.2649532787260222	0.06568880010977264
protein_288	     6	12.01078	0.0000000000000000	A    	0.3399669507944831	0.3598240005370534
protein_289	     8	15.99943	0.0000000000000000	A    	0.2959921901644686	0.8786399993381852
protein_290	     8	15.99943	0.0000000000000000	A    	0.2959921901644686	0.8786399993381852
protein_291	     7	14.00672	0.0000000000000000	A    	0.3249998524031035	0.7112799996555186
protein_292	     1	1.007947	0.0000000000000000	A    	0.1069078461720523	0.06568880001765333
protein_293	     6	12.01078	0.0000000000000000	A    	0.339966950845074	0.4577295996474049
protein_294	     1	1.007947	0.0000000000000000	A    	0.2471353042642165	0.06568880041196259
protein_295	     6	12.01078	0.0000000000000000	A    	0.3399669507944831	0.3598240005370534
protein_296	     8	15.99943	0.0000000000000000	A    	0.2959921901644686	0.8786399993381852
protein_297	     6	12.01078	0.0000000000000000	A    	0.339966950845074	0.4577295996474049
protein_298	     1	1.007947	0.0000000000000000	A    	0.2471353042642165	0.06568880041196259
protein_299	     1	1.007947	0.0000000000000000	A    	0.2471353042642165	0.06568880041196259
protein_300	     8	15.99943	0.0000000000000000	A    	0.3066473387458142	0.8803136010405576
protein_301	     1	1.007947	0.0000000000000000	A    	0	0
protein_302	     7	14.00672	0.0000000000000000	A    	0.3249998524031035	0.7112799996555186
protein_303	     1	1.007947	0.0000000000000000	A    	0.1069078461720523	0.06568880001765333
protein_304	     6	12.01078	0.0000000000000000	A    	0.339966950845074	0.4577295996474049
protein_305	     1	1.007947	0.0000000000000000	A    	0.2471353042642165	0.06568880041196259
protein_306	     6	12.01078	0.0000000000000000	A    	0.3399669507944831	0.3598240005370534
protein_307	     8	15.99943	0.0000000000000000	A    	0.2959921901644686	0.8786399993381852
protein_308	     6	12.01078	0.0000000000000000	A    	0.339966950845074	0.4577295996474049
protein_309	     1	1.007947	0.0000000000000000	A    	0.2649532787260222	0.06568880010977264
protein_310	     1	1.007947	0.0000000000000000	A    	0.2649532787260222	0.06568880010977264
protein_311	     6	12.01078	0.0000000000000000	A    	0.339966950845074	0.4577295996474049
protein_312	     1	1.007947	0.0000000000000000	A    	0.2649532787260222	0.06568880010977264
protein_313	     1	1.007947	0.0000000000000000	A    	0.2649532787260222	0.06568880010977264
protein_314	     6	12.01078	0.0000000000000000	A    	0.3399669507944831	0.3598240005370534
protein_315	     8	15.99943	0.0000000000000000	A    	0.2959921901644686	0.8786399993381852
protein_316	     8	15.99943	0.0000000000000000	A    	0.2959921901644686	0.8786399993381852
protein_317	     7	14.00672	0.0000000000000000	A    	0.3249998524031035	0.7112799996555186
protein_318	     1	1.007947	0.0000000000000000	A    	0.1069078461720523	0.06568880001765333
protein_319	     6	12.01078	0.0000000000000000	A    	0.339966950845074	0.4577295996474049
protein_320	     1	1.007947	0.0000000000000000	A    	0.2471353042642165	0.06568880041196259
protein_321	     6	12.01078	0.0000000000000000	A    	0.3399669507944831	0.3598240005370534
protein_322	     8	15.99943	0.0000000000000000	A    	0.2959921901644686	0.8786399993381852
protein_323	     6	12.01078	0.0000000000000000	A    	0.339966950845074	0.4577295996474049
protein_324	     1	1.007947	0.0000000000000000	A    	0.2649532787260222	0.06568880010977264
protein_325	     1	1.007947	0.0000000000000000	A    	0.2649532787260222	0.06568880010977264
protein_326	     6	12.01078	0.0000000000000000	A    	0.339966950845074	0.4577295996474049
protein_327	     1	1.007947	0.0000000000000000	A    	0.2649532787260222	0.06568880010977264
protein_328	     1	1.007947	0.0000000000000000	A    	0.2649532787260222	0.06568880010977264
protein_329	     6	12.01078	0.0000000000000000	A    	0.339966950845074	0.4577295996474049
protein_330	     1	1.007947	0.0000000000000000	A    	0.2471353042642165	0.06568880041196259
protein_331	     1	1.007947	0.0000000000000000	A    	0.2471353042642165	0.06568880041196259
protein_332	     7	14.00672	0.0000000000000000	A    	0.3249998524031035	0.7112799996555186
protein_333	     1	1.007947	0.0000000000000000	A    	0.1069078461720523	0.06568880001765333
protein_334	     6	12.01078	0.0000000000000000	A    	0.3399669507944831	0.3598240005370534
protein_335	     7	14.00672	0.0000000000000000	A    	0.3249998524031035	0.7112799996555186
protein_336	     1	1.007947	0.0000000000000000	A    	0.1069078461720523	0.06568880001765333
protein_337	     1	1.007947	0.0000000000000000	A    	0.1069078461720523	0.06568880001765333
protein_338	     7	14.00672	0.0000000000000000	A    	0.3249998524031035	0.7112799996555186
protein_339	     1	1.007947	0.0000000000000000	A    	0.1069078461720523	0.06568880001765333
protein_340	     1	1.007947	0.0000000000000000	A    	0.1069078461720523	0.06568880001765333
protein_341	     7	14.00672	0.0000000000000000	A    	0.3249998524031035	0.7112799996555186
protein_342	     1	1.007947	0.0000000000000000	A    	0.1069078461720523	0.06568880001765333
protein_343	     6	12.01078	0.0000000000000000	A    	0.339966950845074	0.4577295996474049
protein_344	     1	1.007947	0.0000000000000000	A    	0.2471353042642165	0.06568880041196259
protein_345	     6	12.01078	0.0000000000000000	A    	0.3399669507944831	0.3598240005370534
protein_346	     8	15.99943	0.0000000000000000	A    	0.2959921901644686	0.8786399993381852
protein_347	     6	12.01078	0.0000000000000000	A    	0.339966950845074	0.4577295996474049
protein_348	     1	1.007947	0.0000000000000000	A    	0.2649532787260222	0.06568880010977264
protein_349	     1	1.007947	0.0000000000000000	A    	0.2649532787260222	0.06568880010977264
protein_350	     6	12.01078	0.0000000000000000	A    	0.339966950845074	0.4577295996474049
protein_351	     1	1.007947	0.0000000000000000	A    	0.2649532787260222	0.06568880010977264
protein_352	     6	12.01078	0.0000000000000000	A    	0.339966950845074	0.4577295996474049
protein_353	     1	1.007947	0.0000000000000000	A    	0.2649532787260222	0.06568880010977264
protein_354	     1	1.007947	0.0000000000000000	A    	0.2649532787260222	0.06568880010977264
protein_355	     1	1.007947	0.0000000000000000	A    	0.2649532787260222	0.06568880010977264
protein_356	     6	12.01078	0.0000000000000000	A    	0.339966950845074	0.4577295996474049
protein_357	     1	1.007947	0.0000000000000000	A    	0.2649532787260222	0.06568880010977264
protein_358	     1	1.007947	0.0000000000000000	A    	0.2649532787260222	0.06568880010977264
protein_359	     1	1.007947	0.0000000000000000	A    	0.2649532787260222	0.06568880010977264
protein_360	     7	14.00672	0.0000000000000000	A    	0.3249998524031035	0.7112799996555186
protein_361	     1	1.007947	0.0000000000000000	A    	0.1069078461720523	0.06568880001765333
protein_362	     6	12.01078	0.0000000000000000	A    	0.339966950845074	0.4577295996474049
protein_363	     1	1.007947	0.0000000000000000	A    	0.2471353042642165	0.06568880041196259
protein_364	     6	12.01078	0.0000000000000000	A    	0.3399669507944831	0.3598240005370534
protein_365	     8	15.99943	0.0000000000000000	A    	0.2959921901644686	0.8786399993381852
protein_366	     6	12.01078	0.0000000000000000	A    	0.339966950845074	0.4577295996474049
protein_367	     1	1.007947	0.0000000000000000	A    	0.2649532787260222	0.06568880010977264
protein_368	     1	1.007947	0.0000000000000000	A    	0.2649532787260222	0.06568880010977264
protein_369	     6	12.01078	0.0000000000000000	A    	0.339966950845074	0.4577295996474049
protein_370	     1	1.007947	0.0000000000000000	A    	0.2649532787260222	0.06568880010977264
protein_371	     6	12.01078	0.0000000000000000	A    	0.339966950845074	0.4577295996474049
protein_372	     1	1.007947	0.0000000000000000	A    	0.2649532787260222	0.06568880010977264
protein_373	     1	1.007947	0.0000000000000000	A    	0.2649532787260222	0.06568880010977264
protein_374	     1	1.007947	0.0000000000000000	A    	0.2649532787260222	0.06568880010977264
protein_375	     6	12.01078	0.0000000000000000	A    	0.339966950845074	0.4577295996474049
protein_376	     1	1.007947	0.0000000000000000	A    	0.2649532787260222	0.06568880010977264
protein_377	     1	1.007947	0.0000000000000000	A    	0.2649532787260222	0.06568880010977264
protein_378	     1	1.007947	0.0000000000000000	A    	0.2649532787260222	0.06568880010977264
protein_379	     7	14.00672	0.0000000000000000	A    	0.3249998524031035	0.7112799996555186
protein_380	     1	1.007947	0.0000000000000000	A    	0.1069078461720523	0.06568880001765333
protein_381	     6	12.01078	0.0000000000000000	A    	0.339966950845074	0.4577295996474049
protein_382	     1	1.007947	0.0000000000000000	A    	0.2471353042642165	0.06568880041196259
protein_383	     6	12.01078	0.0000000000000000	A    	0.3399669507944831	0.3598240005370534
protein_384	     8	15.99943	0.0000000000000000	A    	0.2959921901644686	0.8786399993381852
protein_385	     6	12.01078	0.0000000000000000	A    	0.339966950845074	0.4577295996474049
protein_386	     1	1.007947	0.0000000000000000	A    	0.2649532787260222	0.06568880010977264
protein_387	     1	1.007947	0.0000000000000000	A    	0.2649532787260222	0.06568880010977264
protein_388	     6	12.01078	0.0000000000000000	A    	0.339966950845074	0.4577295996474049
protein_389	     1	1.007947	0.0000000000000000	A    	0.2649532787260222	0.06568880010977264
protein_390	     6	12.01078	0.0000000000000000	A    	0.339966950845074	0.4577295996474049
protein_391	     1	1.007947	0.0000000000000000	A    	0.2649532787260222	0.06568880010977264
protein_392	     1	1.007947	0.0000000000000000	A    	0.2649532787260222	0.06568880010977264
protein_393	     1	1.007947	0.0000000000000000	A    	0.2649532787260222	0.06568880010977264
protein_394	     6	12.01078	0.0000000000000000	A    	0.339966950845074	0.4577295996474049
protein_395	     1	1.007947	0.0000000000000000	A    	0.2649532787260222	0.06568880010977264
protein_396	     1	1.007947	0.0000000000000000	A    	0.2649532787260222	0.06568880010977264
protein_397	     1	1.007947	0.0000000000000000	A    	0.2649532787260222	0.06568880010977264
protein_398	     7	14.00672	0.0000000000000000	A    	0.3249998524031035	0.7112799996555186
protein_399	     1	1.007947	0.0000000000000000	A    	0.1069078461720523	0.06568880001765333
protein_400	     6	12.01078	0.0000000000000000	A    	0.339966950845074	0.4577295996474049
protein_401	     1	1.007947	0.0000000000000000	A    	0.2471353042642165	0.06568880041196259
protein_402	     6	12.01078	0.0000000000000000	A    	0.3399669507944831	0.3598240005370534
protein_403	     8	15.99943	0.0000000000000000	A    	0.2959921901644686	0.8786399993381852
protein_404	     6	12.01078	0.0000000000000000	A    	0.339966950845074	0.4577295996474049
protein_405	     1	1.007947	0.0000000000000000	A    	0.2649532787260222	0.06568880010977264
protein_406	     1	1.007947	0.0000000000000000	A    	0.2649532787260222	0.06568880010977264
protein_407	     6	12.01078	0.0000000000000000	A    	0.3399669507944831	0.3598240005370534
protein_408	     7	14.00672	0.0000000000000000	A    	0.3249998524031035	0.7112799996555186
protein_409	     1	1.007947	0.0000000000000000	A    	0.1069078461720523	0.06568880001765333
protein_410	     1	1.007947	0.0000000000000000	A    	0.1069078461720523	0.06568880001765333
protein_411	     8	15.99943	0.0000000000000000	A    	0.2959921901644686	0.8786399993381852
protein_412	     7	14.00672	0.0000000000000000	A    	0.3249998524031035	0.7112799996555186
protein_413	     1	1.007947	0.0000000000000000	A    	0.1069078461720523	0.06568880001765333
protein_414	     6	12.01078	0.0000000000000000	A    	0.339966950845074	0.4577295996474049
protein_415	     1	1.007947	0.0000000000000000	A    	0.2471353042642165	0.06568880041196259
protein_416	     6	12.01078	0.0000000000000000	A    	0.3399669507944831	0.3598240005370534
protein_417	     8	15.99943	0.0000000000000000	A    	0.2959921901644686	0.8786399993381852
protein_418	     6	12.01078	0.0000000000000000	A    	0.339966950845074	0.4577295996474049
protein_419	     1	1.007947	0.0000000000000000	A    	0.2649532787260222	0.06568880010977264
protein_420	     1	1.007947	0.0000000000000000	A    	0.2649532787260222	0.06568880010977264
protein_421	     1	1.007947	0.0000000000000000	A    	0.2649532787260222	0.06568880010977264
protein_422	     7	14.00672	0.0000000000000000	A    	0.3249998524031035	0.7112799996555186
protein_423	     1	1.007947	0.0000000000000000	A    	0.1069078461720523	0.06568880001765333
protein_424	     6	12.01078	0.0000000000000000	A    	0.339966950845074	0.4577295996474049
protein_425	     1	1.007947	0.0000000000000000	A    	0.2471353042642165	0.06568880041196259
protein_426	     6	12.01078	0.0000000000000000	A    	0.3399669507944831	0.3598240005370534
protein_427	     8	15.99943	0.0000000000000000	A    	0.2959921901644686	0.8786399993381852
protein_428	     6	12.01078	0.0000000000000000	A    	0.339966950845074	0.4577295996474049
protein_429	     1	1.007947	0.0000000000000000	A    	0.2649532787260222	0.06568880010977264
protein_430	     1	1.007947	0.0000000000000000	A    	0.2649532787260222	0.06568880010977264
protein_431	     6	12.01078	0.0000000000000000	A    	0.339966950845074	0.4577295996474049
protein_432	     1	1.007947	0.0000000000000000	A    	0.2649532787260222	0.06568880010977264
protein_433	     1	1.007947	0.0000000000000000	A    	0.2649532787260222	0.06568880010977264
protein_434	     6	12.01078	0.0000000000000000	A    	0.3399669507944831	0.3598240005370534
protein_435	     8	15.99943	0.0000000000000000	A    	0.2959921901644686	0.8786399993381852
protein_436	     8	15.99943	0.0000000000000000	A    	0.2959921901644686	0.8786399993381852
protein_437	     7	14.00672	0.0000000000000000	A    	0.3249998524031035	0.7112799996555186
protein_438	     1	1.007947	0.0000000000000000	A    	0.1069078461720523	0.06568880001765333
protein_439	     6	12.01078	0.0000000000000000	A    	0.339966950845074	0.4577295996474049
protein_440	     1	1.007947	0.0000000000000000	A    	0.2471353042642165	0.06568880041196259
protein_441	     6	12.01078	0.0000000000000000	A    	0.3399669507944831	0.3598240005370534
protein_442	     8	15.99943	0.0000000000000000	A    	0.2959921901644686	0.8786399993381852
protein_443	     6	12.01078	0.0000000000000000	A    	0.339966950845074	0.4577295996474049
protein_444	     1	1.007947	0.0000000000000000	A    	0.2649532787260222	0.06568880010977264
protein_445	     1	1.007947	0.0000000000000000	A    	0.2649532787260222	0.06568880010977264
protein_446	     6	12.01078	0.0000000000000000	A    	0.3399669507944831	0.3598240005370534
protein_447	     7	14.00672	0.0000000000000000	A    	0.3249998524031035	0.7112799996555186
protein_448	     1	1.007947	0.0000000000000000	A    	0.1069078461720523	0.06568880001765333
protein_449	     1	1.007947	0.0000000000000000	A    	0.1069078461720523	0.06568880001765333
protein_450	     8	15.99943	0.0000000000000000	A    	0.2959921901644686	0.8786399993381852
protein_451	     7	14.00672	0.0000000000000000	A    	0.3249998524031035	0.7112799996555186
protein_452	     6	12.01078	0.0000000000000000	A    	0.339966950845074	0.4577295996474049
protein_453	     1	1.007947	0.0000000000000000	A    	0.2471353042642165	0.06568880041196259
protein_454	     6	12.01078	0.0000000000000000	A    	0.3399669507944831	0.3598240005370534
protein_455	     8	15.99943	0.0000000000000000	A    	0.2959921901644686	0.8786399993381852
protein_456	     6	12.01078	0.0000000000000000	A    	0.339966950845074	0.4577295996474049
protein_457	     1	1.007947	0.0000000000000000	A    	0.2649532787260222	0.06568880010977264
protein_458	     1	1.007947	0.0000000000000000	A    	0.2649532787260222	0.06568880010977264
protein_459	     6	12.01078	0.0000000000000000	A    	0.339966950845074	0.4577295996474049
protein_460	     1	1.007947	0.0000000000000000	A    	0.2649532787260222	0.06568880010977264
protein_461	     1	1.007947	0.0000000000000000	A    	0.2649532787260222	0.06568880010977264
protein_462	     6	12.01078	0.0000000000000000	A    	0.339966950845074	0.4577295996474049
protein_463	     1	1.007947	0.0000000000000000	A    	0.2471353042642165	0.06568880041196259
protein_464	     1	1.007947	0.0000000000000000	A    	0.2471353042642165	0.06568880041196259
protein_465	     7	14.00672	0.0000000000000000	A    	0.3249998524031035	0.7112799996555186
protein_466	     1	1.007947	0.0000000000000000	A    	0.1069078461720523	0.06568880001765333
protein_467	     6	12.01078	0.0000000000000000	A    	0.339966950845074	0.4577295996474049
protein_468	     1	1.007947	0.0000000000000000	A    	0.2471353042642165	0.06568880041196259
protein_469	     6	12.01078	0.0000000000000000	A    	0.3399669507944831	0.3598240005370534
protein_470	     8	15.99943	0.0000000000000000	A    	0.2959921901644686	0.8786399993381852
protein_471	     6	12.01078	0.0000000000000000	A    	0.339966950845074	0.4577295996474049
protein_472	     1	1.007947	0.0000000000000000	A    	0.2649532787260222	0.06568880010977264
protein_473	     1	1.007947	0.0000000000000000	A    	0.2649532787260222	0.06568880010977264
protein_474	     6	12.01078	0.0000000000000000	A    	0.339966950845074	0.4577295996474049
protein_475	     1	1.007947	0.0000000000000000	A    	0.2649532787260222	0.06568880010977264
protein_476	     1	1.007947	0.0000000000000000	A    	0.2649532787260222	0.06568880010977264
protein_477	     6	12.01078	0.0000000000000000	A    	0.339966950845074	0.4577295996474049
protein_478	     1	1.007947	0.0000000000000000	A    	0.2471353042642165	0.06568880041196259
protein_479	     1	1.007947	0.0000000000000000	A    	0.2471353042642165	0.06568880041196259
protein_480	     7	14.00672	0.0000000000000000	A    	0.3249998524031035	0.7112799996555186
protein_481	     1	1.007947	0.0000000000000000	A    	0.1069078461720523	0.06568880001765333
protein_482	     6	12.01078	0.0000000000000000	A    	0.3399669507944831	0.3598240005370534
protein_483	     7	14.00672	0.0000000000000000	A    	0.3249998524031035	0.7112799996555186
protein_484	     1	1.007947	0.0000000000000000	A    	0.1069078461720523	0.06568880001765333
protein_485	     1	1.007947	0.0000000000000000	A    	0.1069078461720523	0.06568880001765333
protein_486	     7	14.00672	0.0000000000000000	A    	0.3249998524031035	0.7112799996555186
protein_487	     1	1.007947	0.0000000000000000	A    	0.1069078461720523	0.06568880001765333
protein_488	     1	1.007947	0.0000000000000000	A    	0.1069078461720523	0.06568880001765333
protein_489	     7	14.00672	0.0000000000000000	A    	0.3249998524031035	0.7112799996555186
protein_490	     1	1.007947	0.0000000000000000	A    	0.1069078461720523	0.06568880001765333
protein_491	     6	12.01078	0.0000000000000000	A    	0.339966950845074	0.4577295996474049
protein_492	     1	1.007947	0.0000000000000000	A    	0.2471353042642165	0.06568880041196259
protein_493	     1	1.007947	0.0000000000000000	A    	0.2471353042642165	0.06568880041196259
protein_494	     6	12.01078	0.0000000000000000	A    	0.3399669507944831	0.3598240005370534
protein_495	     8	15.99943	0.0000000000000000	A    	0.2959921901644686	0.8786399993381852
protein_496	     7	14.00672	0.0000000000000000	A    	0.3249998524031035	0.7112799996555186
protein_497	     1	1.007947	0.0000000000000000	A    	0.1069078461720523	0.06568880001765333
protein_498	     6	12.01078	0.0000000000000000	A    	0.339966950845074	0.4577295996474049
protein_499	     1	1.007947	0.0000000000000000	A    	0.2471353042642165	0.06568880041196259
protein_500	     6	12.01078	0.0000000000000000	A    	0.3399669507944831	0.3598240005370534
protein_501	     8	15.99943	0.0000000000000000	A    	0.2959921901644686	0.8786399993381852
protein_502	     6	12.01078	0.0000000000000000	A    	0.339966950845074	0.4577295996474049
protein_503	     1	1.007947	0.0000000000000000	A    	0.2471353042642165	0.06568880041196259
protein_504	     6	12.01078	0.0000000000000000	A    	0.339966950845074	0.4577295996474049
protein_505	     1	1.007947	0.0000000000000000	A    	0.2649532787260222	0.06568880010977264
protein_506	     1	1.007947	0.0000000000000000	A    	0.2649532787260222	0.06568880010977264
protein_507	     1	1.007947	0.0000000000000000	A    	0.2649532787260222	0.06568880010977264
protein_508	     8	15.99943	0.0000000000000000	A    	0.3066473387458142	0.8803136010405576
protein_509	     1	1.007947	0.0000000000000000	A    	0	0
protein_510	     7	14.00672	0.0000000000000000	A    	0.3249998524031035	0.7112799996555186
protein_511	     1	1.007947	0.0000000000000000	A    	0.1069078461720523	0.06568880001765333
protein_512	     6	12.01078	0.0000000000000000	A    	0.339966950845074	0.4577295996474049
protein_513	     1	1.007947	0.0000000000000000	A    	0.2471353042642165	0.06568880041196259
protein_514	     6	12.01078	0.0000000000000000	A    	0.3399669507944831	0.3598240005370534
protein_515	     8	15.99943	0.0000000000000000	A    	0.2959921901644686	0.8786399993381852
protein_516	     6	12.01078	0.0000000000000000	A    	0.339966950845074	0.4577295996474049
protein_517	     1	1.007947	0.0000000000000000	A    	0.2649532787260222	0.06568880010977264
protein_518	     1	1.007947	0.0000000000000000	A    	0.2649532787260222	0.06568880010977264
protein_519	     6	12.01078	0.0000000000000000	A    	0.3399669507944831	0.3598240005370534
protein_520	     6	12.01078	0.0000000000000000	A    	0.3399669507944831	0.3598240005370534
protein_521	     1	1.007947	0.0000000000000000	A    	0.2599642458735085	0.06276000026869927
protein_522	     6	12.01078	0.0000000000000000	A    	0.3399669507944831	0.3598240005370534
protein_523	     1	1.007947	0.0000000000000000	A    	0.2599642458735085	0.06276000026869927
protein_524	     6	12.01078	0.0000000000000000	A    	0.3399669507944831	0.3598240005370534
protein_525	     1	1.007947	0.0000000000000000	A    	0.2599642458735085	0.06276000026869927
protein_526	     6	12.01078	0.0000000000000000	A    	0.3399669507944831	0.3598240005370534
protein_527	     1	1.007947	0.0000000000000000	A    	0.2599642458735085	0.06276000026869927
protein_528	     6	12.01078	0.0000000000000000	A    	0.3399669507944831	0.3598240005370534
protein_529	     1	1.007947	0.0000000000000000	A    	0.2599642458735085	0.06276000026869927
protein_530	     7	14.00672	0.0000000000000000	A    	0.3249998524031035	0.7112799996555186
protein_531	     1	1.007947	0.0000000000000000	A    	0.1069078461720523	0.06568880001765333
protein_532	     6	12.01078	0.0000000000000000	A    	0.339966950845074	0.4577295996474049
protein_533	     1	1.007947	0.0000000000000000	A    	0.2471353042642165	0.06568880041196259
protein_534	     6	12.01078	0.0000000000000000	A    	0.3399669507944831	0.3598240005370534
protein_535	     8	15.99943	0.0000000000000000	A    	0.2959921901644686	0.8786399993381852
protein_536	     6	12.01078	0.0000000000000000	A    	0.339966950845074	0.4577295996474049
protein_537	     1	1.007947	0.0000000000000000	A    	0.2649532787260222	0.06568880010977264
protein_538	     1	1.007947	0.0000000000000000	A    	0.2649532787260222	0.06568880010977264
protein_539	     6	12.01078	0.0000000000000000	A    	0.339966950845074	0.4577295996474049
protein_540	     1	1.007947	0.0000000000000000	A    	0.2649532787260222	0.06568880010977264
protein_541	     6	12.01078	0.0000000000000000	A    	0.339966950845074	0.4577295996474049
protein_542	     1	1.007947	0.0000000000000000	A    	0.2649532787260222	0.06568880010977264
protein_543	     1	1.007947	0.0000000000000000	A    	0.2649532787260222	0.06568880010977264
protein_544	     1	1.007947	0.0000000000000000	A    	0.2649532787260222	0.06568880010977264
protein_545	     6	12.01078	0.0000000000000000	A    	0.339966950845074	0.4577295996474049
protein_546	     1	1.007947	0.0000000000000000	A    	0.2649532787260222	0.06568880010977264
protein_547	     1	1.007947	0.0000000000000000	A    	0.2649532787260222	0.06568880010977264
protein_548	     1	1.007947	0.0000000000000000	A    	0.2649532787260222	0.06568880010977264
protein_549	     7	14.00672	0.0000000000000000	A    	0.3249998524031035	0.7112799996555186
protein_550	     1	1.007947	0.0000000000000000	A    	0.1069078461720523	0.06568880001765333
protein_551	     6	12.01078	0.0000000000000000	A    	0.339966950845074	0.4577295996474049
protein_552	     1	1.007947	0.0000000000000000	A    	0.2471353042642165	0.06568880041196259
protein_553	     6	12.01078	0.0000000000000000	A    	0.3399669507944831	0.3598240005370534
protein_554	     8	15.99943	0.0000000000000000	A    	0.2959921901644686	0.8786399993381852
protein_555	     6	12.01078	0.0000000000000000	A    	0.339966950845074	0.4577295996474049
protein_556	     1	1.007947	0.0000000000000000	A    	0.2649532787260222	0.06568880010977264
protein_557	     6	12.01078	0.0000000000000000	A    	0.339966950845074	0.4577295996474049
protein_558	     1	1.007947	0.0000000000000000	A    	0.2649532787260222	0.06568880010977264
protein_559	     1	1.007947	0.0000000000000000	A    	0.2649532787260222	0.06568880010977264
protein_560	     1	1.007947	0.0000000000000000	A    	0.2649532787260222	0.06568880010977264
protein_561	     6	12.01078	0.0000000000000000	A    	0.339966950845074	0.4577295996474049
protein_562	     1	1.007947	0.0000000000000000	A    	0.2649532787260222	0.06568880010977264
protein_563	     1	1.007947	0.0000000000000000	A    	0.2649532787260222	0.06568880010977264
protein_564	     1	1.007947	0.0000000000000000	A    	0.2649532787260222	0.06568880010977264
protein_565	     7	14.00672	0.0000000000000000	A    	0.3249998524031035	0.7112799996555186
protein_566	     1	1.007947	0.0000000000000000	A    	0.1069078461720523	0.06568880001765333
protein_567	     6	12.01078	0.0000000000000000	A    	0.339966950845074	0.4577295996474049
protein_568	     1	1.007947	0.0000000000000000	A    	0.2471353042642165	0.06568880041196259
protein_569	     6	12.01078	0.0000000000000000	A    	0.3399669507944831	0.3598240005370534
protein_570	     8	15.99943	0.0000000000000000	A    	0.2959921901644686	0.8786399993381852
protein_571	     6	12.01078	0.0000000000000000	A    	0.339966950845074	0.4577295996474049
protein_572	     1	1.007947	0.0000000000000000	A    	0.2649532787260222	0.06568880010977264
protein_573	     1	1.007947	0.0000000000000000	A    	0.2649532787260222	0.06568880010977264
protein_574	     6	12.01078	0.0000000000000000	A    	0.339966950845074	0.4577295996474049
protein_575	     1	1.007947	0.0000000000000000	A    	0.2649532787260222	0.06568880010977264
protein_576	     1	1.007947	0.0000000000000000	A    	0.2649532787260222	0.06568880010977264
protein_577	     6	12.01078	0.0000000000000000	A    	0.339966950845074	0.4577295996474049
protein_578	     1	1.007947	0.0000000000000000	A    	0.2471353042642165	0.06568880041196259
protein_579	     1	1.007947	0.0000000000000000	A    	0.2471353042642165	0.06568880041196259
protein_580	     7	14.00672	0.0000000000000000	A    	0.3249998524031035	0.7112799996555186
protein_581	     1	1.007947	0.0000000000000000	A    	0.1069078461720523	0.06568880001765333
protein_582	     6	12.01078	0.0000000000000000	A    	0.3399669507944831	0.3598240005370534
protein_583	     7	14.00672	0.0000000000000000	A    	0.3249998524031035	0.7112799996555186
protein_584	     1	1.007947	0.0000000000000000	A    	0.1069078461720523	0.06568880001765333
protein_585	     1	1.007947	0.0000000000000000	A    	0.1069078461720523	0.06568880001765333
protein_586	     7	14.00672	0.0000000000000000	A    	0.3249998524031035	0.7112799996555186
protein_587	     1	1.007947	0.0000000000000000	A    	0.1069078461720523	0.06568880001765333
protein_588	     1	1.007947	0.0000000000000000	A    	0.1069078461720523	0.06568880001765333
protein_589	     7	14.00672	0.0000000000000000	A    	0.3249998524031035	0.7112799996555186
protein_590	     1	1.007947	0.0000000000000000	A    	0.1069078461720523	0.06568880001765333
protein_591	     6	12.01078	0.0000000000000000	A    	0.339966950845074	0.4577295996474049
protein_592	     1	1.007947	0.0000000000000000	A    	0.2471353042642165	0.06568880041196259
protein_593	     6	12.01078	0.0000000000000000	A    	0.3399669507944831	0.3598240005370534
protein_594	     8	15.99943	0.0000000000000000	A    	0.2959921901644686	0.8786399993381852
protein_595	     6	12.01078	0.0000000000000000	A    	0.339966950845074	0.4577295996474049
protein_596	     1	1.007947	0.0000000000000000	A    	0.2649532787260222	0.06568880010977264
protein_597	     1	1.007947	0.0000000000000000	A    	0.2649532787260222	0.06568880010977264
protein_598	     6	12.01078	0.0000000000000000	A    	0.339966950845074	0.4577295996474049
protein_599	     1	1.007947	0.0000000000000000	A    	0.2649532787260222	0.06568880010977264
protein_600	     1	1.007947	0.0000000000000000	A    	0.2649532787260222	0.06568880010977264
protein_601	     6	12.01078	0.0000000000000000	A    	0.3399669507944831	0.3598240005370534
protein_602	     8	15.99943	0.0000000000000000	A    	0.2959921901644686	0.8786399993381852
protein_603	     8	15.99943	0.0000000000000000	A    	0.2959921901644686	0.8786399993381852
protein_604	     7	14.00672	0.0000000000000000	A    	0.3249998524031035	0.7112799996555186
protein_605	     1	1.007947	0.0000000000000000	A    	0.1069078461720523	0.06568880001765333
protein_606	     6	12.01078	0.0000000000000000	A    	0.339966950845074	0.4577295996474049
protein_607	     1	1.007947	0.0000000000000000	A    	0.2471353042642165	0.06568880041196259
protein_608	     6	12.01078	0.0000000000000000	A    	0.3399669507944831	0.3598240005370534
protein_609	     8	15.99943	0.0000000000000000	A    	0.2959921901644686	0.8786399993381852
protein_610	     6	12.01078	0.0000000000000000	A    	0.339966950845074	0.4577295996474049
protein_611	     1	1.007947	0.0000000000000000	A    	0.2471353042642165	0.06568880041196259
protein_612	     1	1.007947	0.0000000000000000	A    	0.2471353042642165	0.06568880041196259
protein_613	     8	15.99943	0.0000000000000000	A    	0.3066473387458142	0.8803136010405576
protein_614	     1	1.007947	0.0000000000000000	A    	0	0
protein_615	     7	14.00672	0.0000000000000000	A    	0.3249998524031035	0.7112799996555186
protein_616	     1	1.007947	0.0000000000000000	A    	0.1069078461720523	0.06568880001765333
protein_617	     6	12.01078	0.0000000000000000	A    	0.339966950845074	0.4577295996474049
protein_618	     1	1.007947	0.0000000000000000	A    	0.2471353042642165	0.06568880041196259
protein_619	     6	12.01078	0.0000000000000000	A    	0.3399669507944831	0.3598240005370534
protein_620	     8	15.99943	0.0000000000000000	A    	0.2959921901644686	0.8786399993381852
protein_621	     6	12.01078	0.0000000000000000	A    	0.339966950845074	0.4577295996474049
protein_622	     1	1.007947	0.0000000000000000	A    	0.2649532787260222	0.06568880010977264
protein_623	     1	1.007947	0.0000000000000000	A    	0.2649532787260222	0.06568880010977264
protein_624	     6	12.01078	0.0000000000000000	A    	0.339966950845074	0.4577295996474049
protein_625	     1	1.007947	0.0000000000000000	A    	0.2649532787260222	0.06568880010977264
protein_626	     1	1.007947	0.0000000000000000	A    	0.2649532787260222	0.06568880010977264
protein_627	     6	12.01078	0.0000000000000000	A    	0.3399669507944831	0.3598240005370534
protein_628	     8	15.99943	0.0000000000000000	A    	0.2959921901644686	0.8786399993381852
protein_629	     8	15.99943	0.0000000000000000	A    	0.2959921901644686	0.8786399993381852
protein_630	     7	14.00672	0.0000000000000000	A    	0.3249998524031035	0.7112799996555186
protein_631	     1	1.007947	0.0000000000000000	A    	0.1069078461720523	0.06568880001765333
protein_632	     6	12.01078	0.0000000000000000	A    	0.339966950845074	0.4577295996474049
protein_633	     1	1.007947	0.0000000000000000	A    	0.2471353042642165	0.06568880041196259
protein_634	     6	12.01078	0.0000000000000000	A    	0.3399669507944831	0.3598240005370534
protein_635	     8	15.99943	0.0000000000000000	A    	0.2959921901644686	0.8786399993381852
protein_636	     6	12.01078	0.0000000000000000	A    	0.339966950845074	0.4577295996474049
protein_637	     1	1.007947	0.0000000000000000	A    	0.2471353042642165	0.06568880041196259
protein_638	     6	12.01078	0.0000000000000000	A    	0.339966950845074	0.4577295996474049
protein_639	     1	1.007947	0.0000000000000000	A    	0.2649532787260222	0.06568880010977264
protein_640	     1	1.007947	0.0000000000000000	A    	0.2649532787260222	0.06568880010977264
protein_641	     1	1.007947	0.0000000000000000	A    	0.2649532787260222	0.06568880010977264
protein_642	     8	15.99943	0.0000000000000000	A    	0.3066473387458142	0.8803136010405576
protein_643	     1	1.007947	0.0000000000000000	A    	0	0
protein_644	     7	14.00672	0.0000000000000000	A    	0.3249998524031035	0.7112799996555186
protein_645	     1	1.007947	0.0000000000000000	A    	0.1069078461720523	0.06568880001765333
protein_646	     6	12.01078	0.0000000000000000	A    	0.339966950845074	0.4577295996474049
protein_647	     1	1.007947	0.0000000000000000	A    	0.2471353042642165	0.06568880041196259
protein_648	     6	12.01078	0.0000000000000000	A    	0.3399669507944831	0.3598240005370534
protein_649	     8	15.99943	0.0000000000000000	A    	0.2959921901644686	0.8786399993381852
protein_650	     6	12.01078	0.0000000000000000	A    	0.339966950845074	0.4577295996474049
protein_651	     1	1.007947	0.0000000000000000	A    	0.2649532787260222	0.06568880010977264
protein_652	     6	12.01078	0.0000000000000000	A    	0.339966950845074	0.4577295996474049
protein_653	     1	1.007947	0.0000000000000000	A    	0.2649532787260222	0.06568880010977264
protein_654	     1	1.007947	0.0000000000000000	A    	0.2649532787260222	0.06568880010977264
protein_655	     1	1.007947	0.0000000000000000	A    	0.2649532787260222	0.06568880010977264
protein_656	     6	12.01078	0.0000000000000000	A    	0.339966950845074	0.4577295996474049
protein_657	     1	1.007947	0.0000000000000000	A    	0.2649532787260222	0.06568880010977264
protein_658	     1	1.007947	0.0000000000000000	A    	0.2649532787260222	0.06568880010977264
protein_659	     1	1.007947	0.0000000000000000	A    	0.2649532787260222	0.06568880010977264
protein_660	     7	14.00672	0.0000000000000000	A    	0.3249998524031035	0.7112799996555186
protein_661	     1	1.007947	0.0000000000000000	A    	0.1069078461720523	0.06568880001765333
protein_662	     6	12.01078	0.0000000000000000	A    	0.339966950845074	0.4577295996474049
protein_663	     1	1.007947	0.0000000000000000	A    	0.2471353042642165	0.06568880041196259
protein_664	     6	12.01078	0.0000000000000000	A    	0.3399669507944831	0.3598240005370534
protein_665	     8	15.99943	0.0000000000000000	A    	0.2959921901644686	0.8786399993381852
protein_666	     6	12.01078	0.0000000000000000	A    	0.339966950845074	0.4577295996474049
protein_667	     1	1.007947	0.0000000000000000	A    	0.2649532787260222	0.06568880010977264
protein_668	     1	1.007947	0.0000000000000000	A    	0.2649532787260222	0.06568880010977264
protein_669	     6	12.01078	0.0000000000000000	A    	0.339966950845074	0.4577295996474049
protein_670	     1	1.007947	0.0000000000000000	A    	0.2649532787260222	0.06568880010977264
protein_671	     1	1.007947	0.0000000000000000	A    	0.2649532787260222	0.06568880010977264
protein_672	     6	12.01078	0.0000000000000000	A    	0.339966950845074	0.4577295996474049
protein_673	     1	1.007947	0.0000000000000000	A    	0.2649532787260222	0.06568880010977264
protein_674	     1	1.007947	0.0000000000000000	A    	0.2649532787260222	0.06568880010977264
protein_675	     6	12.01078	0.0000000000000000	A    	0.339966950845074	0.4577295996474049
protein_676	     1	1.007947	0.0000000000000000	A    	0.1959977179007358	0.06568880026244604
protein_677	     1	1.007947	0.0000000000000000	A    	0.1959977179007358	0.06568880026244604
protein_678	     7	14.00672	0.0000000000000000	A    	0.3249998524031035	0.7112799996555186
protein_679	     1	1.007947	0.0000000000000000	A    	0.1069078461720523	0.06568880001765333
protein_680	     1	1.007947	0.0000000000000000	A    	0.1069078461720523	0.06568880001765333
protein_681	     1	1.007947	0.0000000000000000	A    	0.1069078461720523	0.06568880001765333
protein_682	     7	14.00672	0.0000000000000000	A    	0.3249998524031035	0.7112799996555186
protein_683	     1	1.007947	0.0000000000000000	A    	0.1069078461720523	0.06568880001765333
protein_684	     6	12.01078	0.0000000000000000	A    	0.339966950845074	0.4577295996474049
protein_685	     1	1.007947	0.0000000000000000	A    	0.2471353042642165	0.06568880041196259
protein_686	     1	1.007947	0.0000000000000000	A    	0.2471353042642165	0.06568880041196259
protein_687	     6	12.01078	0.0000000000000000	A    	0.3399669507944831	0.3598240005370534
protein_688	     8	15.99943	0.0000000000000000	A    	0.2959921901644686	0.8786399993381852
protein_689	     7	14.00672	0.0000000000000000	A    	0.3249998524031035	0.7112799996555186
protein_690	     1	1.007947	0.0000000000000000	A    	0.1069078461720523	0.06568880001765333
protein_691	     6	12.01078	0.0000000000000000	A    	0.339966950845074	0.4577295996474049
protein_692	     1	1.007947	0.0000000000000000	A    	0.2471353042642165	0.06568880041196259
protein_693	     6	12.01078	0.0000000000000000	A    	0.3399669507944831	0.3598240005370534
protein_694	     8	15.99943	0.0000000000000000	A    	0.2959921901644686	0.8786399993381852
protein_695	     6	12.01078	0.0000000000000000	A    	0.339966950845074	0.4577295996474049
protein_696	     1	1.007947	0.0000000000000000	A    	0.2649532787260222	0.06568880010977264
protein_697	     1	1.007947	0.0000000000000000	A    	0.2649532787260222	0.06568880010977264
protein_698	     1	1.007947	0.0000000000000000	A    	0.2649532787260222	0.06568880010977264
protein_699	     7	14.00672	0.0000000000000000	A    	0.3249998524031035	0.7112799996555186
protein_700	     1	1.007947	0.0000000000000000	A    	0.1069078461720523	0.06568880001765333
protein_701	     6	12.01078	0.0000000000000000	A    	0.339966950845074	0.4577295996474049
protein_702	     1	1.007947	0.0000000000000000	A    	0.2471353042642165	0.06568880041196259
protein_703	     6	12.01078	0.0000000000000000	A    	0.3399669507944831	0.3598240005370534
protein_704	     8	15.99943	0.0000000000000000	A    	0.2959921901644686	0.8786399993381852
protein_705	     6	12.01078	0.0000000000000000	A    	0.339966950845074	0.4577295996474049
protein_706	     1	1.007947	0.0000000000000000	A    	0.2649532787260222	0.06568880010977264
protein_707	     1	1.007947	0.0000000000000000	A    	0.2649532787260222	0.06568880010977264
protein_708	     6	12.01078	0.0000000000000000	A    	0.3399669507944831	0.3598240005370534
protein_709	     6	12.01078	0.0000000000000000	A    	0.3399669507944831	0.3598240005370534
protein_710	     1	1.007947	0.0000000000000000	A    	0.2599642458735085	0.06276000026869927
protein_711	     6	12.01078	0.0000000000000000	A    	0.3399669507944831	0.3598240005370534
protein_712	     1	1.007947	0.0000000000000000	A    	0.2599642458735085	0.06276000026869927
protein_713	     6	12.01078	0.0000000000000000	A    	0.3399669507944831	0.3598240005370534
protein_714	     1	1.007947	0.0000000000000000	A    	0.2599642458735085	0.06276000026869927
protein_715	     6	12.01078	0.0000000000000000	A    	0.3399669507944831	0.3598240005370534
protein_716	     1	1.007947	0.0000000000000000	A    	0.2599642458735085	0.06276000026869927
protein_717	     6	12.01078	0.0000000000000000	A    	0.3399669507944831	0.3598240005370534
protein_718	     8	15.99943	0.0000000000000000	A    	0.3066473387458142	0.8803136010405576
protein_719	     1	1.007947	0.0000000000000000	A    	0	0
protein_720	     7	14.00672	0.0000000000000000	A    	0.3249998524031035	0.7112799996555186
protein_721	     1	1.007947	0.0000000000000000	A    	0.1069078461720523	0.06568880001765333
protein_722	     6	12.01078	0.0000000000000000	A    	0.339966950845074	0.4577295996474049
protein_723	     1	1.007947	0.0000000000000000	A    	0.2471353042642165	0.06568880041196259
protein_724	     6	12.01078	0.0000000000000000	A    	0.3399669507944831	0.3598240005370534
protein_725	     8	15.99943	0.0000000000000000	A    	0.2959921901644686	0.8786399993381852
protein_726	     6	12.01078	0.0000000000000000	A    	0.339966950845074	0.4577295996474049
protein_727	     1	1.007947	0.0000000000000000	A    	0.2649532787260222	0.06568880010977264
protein_728	     1	1.007947	0.0000000000000000	A    	0.2649532787260222	0.06568880010977264
protein_729	     1	1.007947	0.0000000000000000	A    	0.2649532787260222	0.06568880010977264
protein_730	     7	14.00672	0.0000000000000000	A    	0.3249998524031035	0.7112799996555186
protein_731	     1	1.007947	0.0000000000000000	A    	0.1069078461720523	0.06568880001765333
protein_732	     6	12.01078	0.0000000000000000	A    	0.339966950845074	0.4577295996474049
protein_733	     1	1.007947	0.0000000000000000	A    	0.2471353042642165	0.06568880041196259
protein_734	     6	12.01078	0.0000000000000000	A    	0.3399669507944831	0.3598240005370534
protein_735	     8	15.99943	0.0000000000000000	A    	0.2959921901644686	0.8786399993381852
protein_736	     6	12.01078	0.0000000000000000	A    	0.339966950845074	0.4577295996474049
protein_737	     1	1.007947	0.0000000000000000	A    	0.2649532787260222	0.06568880010977264
protein_738	     1	1.007947	0.0000000000000000	A    	0.2649532787260222	0.06568880010977264
protein_739	     6	12.01078	0.0000000000000000	A    	0.339966950845074	0.4577295996474049
protein_740	     1	1.007947	0.0000000000000000	A    	0.2649532787260222	0.06568880010977264
protein_741	     6	12.01078	0.0000000000000000	A    	0.339966950845074	0.4577295996474049
protein_742	     1	1.007947	0.0000000000000000	A    	0.2649532787260222	0.06568880010977264
protein_743	     1	1.007947	0.0000000000000000	A    	0.2649532787260222	0.06568880010977264
protein_744	     1	1.007947	0.0000000000000000	A    	0.2649532787260222	0.06568880010977264
protein_745	     6	12.01078	0.0000000000000000	A    	0.339966950845074	0.4577295996474049
protein_746	     1	1.007947	0.0000000000000000	A    	0.2649532787260222	0.06568880010977264
protein_747	     1	1.007947	0.0000000000000000	A    	0.2649532787260222	0.06568880010977264
protein_748	     1	1.007947	0.0000000000000000	A    	0.2649532787260222	0.06568880010977264
protein_749	     7	14.00672	0.0000000000000000	A    	0.3249998524031035	0.7112799996555186
protein_750	     1	1.007947	0.0000000000000000	A    	0.1069078461720523	0.06568880001765333
protein_751	     6	12.01078	0.0000000000000000	A    	0.339966950845074	0.4577295996474049
protein_752	     1	1.007947	0.0000000000000000	A    	0.2471353042642165	0.06568880041196259
protein_753	     6	12.01078	0.0000000000000000	A    	0.3399669507944831	0.3598240005370534
protein_754	     8	15.99943	0.0000000000000000	A    	0.2959921901644686	0.8786399993381852
protein_755	     6	12.01078	0.0000000000000000	A    	0.339966950845074	0.4577295996474049
protein_756	     1	1.007947	0.0000000000000000	A    	0.2471353042642165	0.06568880041196259
protein_757	     1	1.007947	0.0000000000000000	A    	0.2471353042642165	0.06568880041196259
protein_758	     8	15.99943	0.0000000000000000	A    	0.3066473387458142	0.8803136010405576
protein_759	     1	1.007947	0.0000000000000000	A    	0	0
protein_760	     7	14.00672	0.0000000000000000	A    	0.3249998524031035	0.7112799996555186
protein_761	     1	1.007947	0.0000000000000000	A    	0.1069078461720523	0.06568880001765333
protein_762	     6	12.01078	0.0000000000000000	A    	0.339966950845074	0.4577295996474049
protein_763	     1	1.007947	0.0000000000000000	A    	0.2471353042642165	0.06568880041196259
protein_764	     6	12.01078	0.0000000000000000	A    	0.3399669507944831	0.3598240005370534
protein_765	     8	15.99943	0.0000000000000000	A    	0.2959921901644686	0.8786399993381852
protein_766	     6	12.01078	0.0000000000000000	A    	0.339966950845074	0.4577295996474049
protein_767	     1	1.007947	0.0000000000000000	A    	0.2649532787260222	0.06568880010977264
protein_768	     6	12.01078	0.0000000000000000	A    	0.339966950845074	0.4577295996474049
protein_769	     1	1.007947	0.0000000000000000	A    	0.2649532787260222	0.06568880010977264
protein_770	     1	1.007947	0.0000000000000000	A    	0.2649532787260222	0.06568880010977264
protein_771	     1	1.007947	0.0000000000000000	A    	0.2649532787260222	0.06568880010977264
protein_772	     6	12.01078	0.0000000000000000	A    	0.339966950845074	0.4577295996474049
protein_773	     1	1.007947	0.0000000000000000	A    	0.2649532787260222	0.06568880010977264
protein_774	     1	1.007947	0.0000000000000000	A    	0.2649532787260222	0.06568880010977264
protein_775	     1	1.007947	0.0000000000000000	A    	0.2649532787260222	0.06568880010977264
protein_776	     7	14.00672	0.0000000000000000	A    	0.3249998524031035	0.7112799996555186
protein_777	     1	1.007947	0.0000000000000000	A    	0.1069078461720523	0.06568880001765333
protein_778	     6	12.01078	0.0000000000000000	A    	0.339966950845074	0.4577295996474049
protein_779	     1	1.007947	0.0000000000000000	A    	0.2471353042642165	0.06568880041196259
protein_780	     6	12.01078	0.0000000000000000	A    	0.3399669507944831	0.3598240005370534
protein_781	     8	15.99943	0.0000000000000000	A    	0.2959921901644686	0.8786399993381852
protein_782	     6	12.01078	0.0000000000000000	A    	0.339966950845074	0.4577295996474049
protein_783	     1	1.007947	0.0000000000000000	A    	0.2471353042642165	0.06568880041196259
protein_784	     1	1.007947	0.0000000000000000	A    	0.2471353042642165	0.06568880041196259
protein_785	     8	15.99943	0.0000000000000000	A    	0.3066473387458142	0.8803136010405576
protein_786	     1	1.007947	0.0000000000000000	A    	0	0
protein_787	     7	14.00672	0.0000000000000000	A    	0.3249998524031035	0.7112799996555186
protein_788	     1	1.007947	0.0000000000000000	A    	0.1069078461720523	0.06568880001765333
protein_789	     6	12.01078	0.0000000000000000	A    	0.339966950845074	0.4577295996474049
protein_790	     1	1.007947	0.0000000000000000	A    	0.2471353042642165	0.06568880041196259
protein_791	     6	12.01078	0.0000000000000000	A    	0.3399669507944831	0.3598240005370534
protein_792	     8	15.99943	0.0000000000000000	A    	0.2959921901644686	0.8786399993381852
protein_793	     6	12.01078	0.0000000000000000	A    	0.339966950845074	0.4577295996474049
protein_794	     1	1.007947	0.0000000000000000	A    	0.2649532787260222	0.06568880010977264
protein_795	     1	1.007947	0.0000000000000000	A    	0.2649532787260222	0.06568880010977264
protein_796	     6	12.01078	0.0000000000000000	A    	0.3399669507944831	0.3598240005370534
protein_797	     8	15.99943	0.0000000000000000	A    	0.2959921901644686	0.8786399993381852
protein_798	     8	15.99943	0.0000000000000000	A    	0.2959921901644686	0.8786399993381852
protein_799	     7	14.00672	0.0000000000000000	A    	0.3249998524031035	0.7112799996555186
protein_800	     1	1.007947	0.0000000000000000	A    	0.1069078461720523	0.06568880001765333
protein_801	     6	12.01078	0.0000000000000000	A    	0.339966950845074	0.4577295996474049
protein_802	     1	1.007947	0.0000000000000000	A    	0.2471353042642165	0.06568880041196259
protein_803	     6	12.01078	0.0000000000000000	A    	0.3399669507944831	0.3598240005370534
protein_804	     8	15.99943	0.0000000000000000	A    	0.2959921901644686	0.8786399993381852
protein_805	     6	12.01078	0.0000000000000000	A    	0.339966950845074	0.4577295996474049
protein_806	     1	1.007947	0.0000000000000000	A    	0.2649532787260222	0.06568880010977264
protein_807	     1	1.007947	0.0000000000000000	A    	0.2649532787260222	0.06568880010977264
protein_808	     6	12.01078	0.0000000000000000	A    	0.3399669507944831	0.3598240005370534
protein_809	     6	12.01078	0.0000000000000000	A    	0.3399669507944831	0.3598240005370534
protein_810	     1	1.007947	0.0000000000000000	A    	0.2599642458735085	0.06276000026869927
protein_811	     6	12.01078	0.0000000000000000	A    	0.3399669507944831	0.3598240005370534
protein_812	     1	1.007947	0.0000000000000000	A    	0.2599642458735085	0.06276000026869927
protein_813	     6	12.01078	0.0000000000000000	A    	0.3399669507944831	0.3598240005370534
protein_814	     1	1.007947	0.0000000000000000	A    	0.2599642458735085	0.06276000026869927
protein_815	     6	12.01078	0.0000000000000000	A    	0.3399669507944831	0.3598240005370534
protein_816	     1	1.007947	0.0000000000000000	A    	0.2599642458735085	0.06276000026869927
protein_817	     6	12.01078	0.0000000000000000	A    	0.3399669507944831	0.3598240005370534
protein_818	     1	1.007947	0.0000000000000000	A    	0.2599642458735085	0.06276000026869927
protein_819	     7	14.00672	0.0000000000000000	A    	0.3249998524031035	0.7112799996555186
protein_820	     1	1.007947	0.0000000000000000	A    	0.1069078461720523	0.06568880001765333
protein_821	     6	12.01078	0.0000000000000000	A    	0.339966950845074	0.4577295996474049
protein_822	     1	1.007947	0.0000000000000000	A    	0.2471353042642165	0.06568880041196259
protein_823	     6	12.01078	0.0000000000000000	A    	0.3399669507944831	0.3598240005370534
protein_824	     8	15.99943	0.0000000000000000	A    	0.2959921901644686	0.8786399993381852
protein_825	     6	12.01078	0.0000000000000000	A    	0.339966950845074	0.4577295996474049
protein_826	     1	1.007947	0.0000000000000000	A    	0.2649532787260222	0.06568880010977264
protein_827	     1	1.007947	0.0000000000000000	A    	0.2649532787260222	0.06568880010977264
protein_828	     6	12.01078	0.0000000000000000	A    	0.3399669507944831	0.3598240005370534
protein_829	     8	15.99943	0.0000000000000000	A    	0.2959921901644686	0.8786399993381852
protein_830	     8	15.99943	0.0000000000000000	A    	0.2959921901644686	0.8786399993381852
protein_831	     7	14.00672	0.0000000000000000	A    	0.3249998524031035	0.7112799996555186
protein_832	     1	1.007947	0.0000000000000000	A    	0.1069078461720523	0.06568880001765333
protein_833	     6	12.01078	0.0000000000000000	A    	0.339966950845074	0.4577295996474049
protein_834	     1	1.007947	0.0000000000000000	A    	0.2471353042642165	0.06568880041196259
protein_835	     6	12.01078	0.0000000000000000	A    	0.3399669507944831	0.3598240005370534
protein_836	     8	15.99943	0.0000000000000000	A    	0.2959921901644686	0.8786399993381852
protein_837	     6	12.01078	0.0000000000000000	A    	0.339966950845074	0.4577295996474049
protein_838	     1	1.007947	0.0000000000000000	A    	0.2649532787260222	0.06568880010977264
protein_839	     1	1.007947	0.0000000000000000	A    	0.2649532787260222	0.06568880010977264
protein_840	     6	12.01078	0.0000000000000000	A    	0.3399669507944831	0.3598240005370534
protein_841	     7	14.00672	0.0000000000000000	A    	0.3249998524031035	0.7112799996555186
protein_842	     1	1.007947	0.0000000000000000	A    	0.1069078461720523	0.06568880001765333
protein_843	     1	1.007947	0.0000000000000000	A    	0.1069078461720523	0.06568880001765333
protein_844	     8	15.99943	0.0000000000000000	A    	0.2959921901644686	0.8786399993381852
protein_845	     7	14.00672	0.0000000000000000	A    	0.3249998524031035	0.7112799996555186
protein_846	     1	1.007947	0.0000000000000000	A    	0.1069078461720523	0.06568880001765333
protein_847	     6	12.01078	0.0000000000000000	A    	0.339966950845074	0.4577295996474049
protein_848	     1	1.007947	0.0000000000000000	A    	0.2471353042642165	0.06568880041196259
protein_849	     6	12.01078	0.0000000000000000	A    	0.3399669507944831	0.3598240005370534
protein_850	     8	15.99943	0.0000000000000000	A    	0.2959921901644686	0.8786399993381852
protein_851	     6	12.01078	0.0000000000000000	A    	0.339966950845074	0.4577295996474049
protein_852	     1	1.007947	0.0000000000000000	A    	0.2649532787260222	0.06568880010977264
protein_853	     1	1.007947	0.0000000000000000	A    	0.2649532787260222	0.06568880010977264
protein_854	     1	1.007947	0.0000000000000000	A    	0.2649532787260222	0.06568880010977264
protein_855	     7	14.00672	0.0000000000000000	A    	0.3249998524031035	0.7112799996555186
protein_856	     1	1.007947	0.0000000000000000	A    	0.1069078461720523	0.06568880001765333
protein_857	     6	12.01078	0.0000000000000000	A    	0.339966950845074	0.4577295996474049
protein_858	     1	1.007947	0.0000000000000000	A    	0.2471353042642165	0.06568880041196259
protein_859	     6	12.01078	0.0000000000000000	A    	0.3399669507944831	0.3598240005370534
protein_860	     8	15.99943	0.0000000000000000	A    	0.2959921901644686	0.8786399993381852
protein_861	     6	12.01078	0.0000000000000000	A    	0.339966950845074	0.4577295996474049
protein_862	     1	1.007947	0.0000000000000000	A    	0.2649532787260222	0.06568880010977264
protein_863	     1	1.007947	0.0000000000000000	A    	0.2649532787260222	0.06568880010977264
protein_864	     6	12.01078	0.0000000000000000	A    	0.339966950845074	0.4577295996474049
protein_865	     1	1.007947	0.0000000000000000	A    	0.2649532787260222	0.06568880010977264
protein_866	     1	1.007947	0.0000000000000000	A    	0.2649532787260222	0.06568880010977264
protein_867	     6	12.01078	0.0000000000000000	A    	0.339966950845074	0.4577295996474049
protein_868	     1	1.007947	0.0000000000000000	A    	0.2649532787260222	0.06568880010977264
protein_869	     1	1.007947	0.0000000000000000	A    	0.2649532787260222	0.06568880010977264
protein_870	     6	12.01078	0.0000000000000000	A    	0.339966950845074	0.4577295996474049
protein_871	     1	1.007947	0.0000000000000000	A    	0.1959977179007358	0.06568880026244604
protein_872	     1	1.007947	0.0000000000000000	A    	0.1959977179007358	0.06568880026244604
protein_873	     7	14.00672	0.0000000000000000	A    	0.3249998524031035	0.7112799996555186
protein_874	     1	1.007947	0.0000000000000000	A    	0.1069078461720523	0.06568880001765333
protein_875	     1	1.007947	0.0000000000000000	A    	0.1069078461720523	0.06568880001765333
protein_876	     1	1.007947	0.0000000000000000	A    	0.1069078461720523	0.06568880001765333
protein_877	     7	14.00672	0.0000000000000000	A    	0.3249998524031035	0.7112799996555186
protein_878	     1	1.007947	0.0000000000000000	A    	0.1069078461720523	0.06568880001765333
protein_879	     6	12.01078	0.0000000000000000	A    	0.339966950845074	0.4577295996474049
protein_880	     1	1.007947	0.0000000000000000	A    	0.2471353042642165	0.06568880041196259
protein_881	     1	1.007947	0.0000000000000000	A    	0.2471353042642165	0.06568880041196259
protein_882	     6	12.01078	0.0000000000000000	A    	0.3399669507944831	0.3598240005370534
protein_883	     8	15.99943	0.0000000000000000	A    	0.2959921901644686	0.8786399993381852
protein_884	     7	14.00672	0.0000000000000000	A    	0.3249998524031035	0.7112799996555186
protein_885	     1	1.007947	0.0000000000000000	A    	0.1069078461720523	0.06568880001765333
protein_886	     6	12.01078	0.0000000000000000	A    	0.339966950845074	0.4577295996474049
protein_887	     1	1.007947	0.0000000000000000	A    	0.2471353042642165	0.06568880041196259
protein_888	     6	12.01078	0.0000000000000000	A    	0.3399669507944831	0.3598240005370534
protein_889	     8	15.99943	0.0000000000000000	A    	0.2959921901644686	0.8786399993381852
protein_890	     6	12.01078	0.0000000000000000	A    	0.339966950845074	0.4577295996474049
protein_891	     1	1.007947	0.0000000000000000	A    	0.2649532787260222	0.06568880010977264
protein_892	     1	1.007947	0.0000000000000000	A    	0.2649532787260222	0.06568880010977264
protein_893	     6	12.01078	0.0000000000000000	A    	0.339966950845074	0.4577295996474049
protein_894	     1	1.007947	0.0000000000000000	A    	0.2649532787260222	0.06568880010977264
protein_895	     6	12.01078	0.0000000000000000	A    	0.339966950845074	0.4577295996474049
protein_896	     1	1.007947	0.0000000000000000	A    	0.2649532787260222	0.06568880010977264
protein_897	     1	1.007947	0.0000000000000000	A    	0.2649532787260222	0.06568880010977264
protein_898	     1	1.007947	0.0000000000000000	A    	0.2649532787260222	0.06568880010977264
protein_899	     6	12.01078	0.0000000000000000	A    	0.339966950845074	0.4577295996474049
protein_900	     1	1.007947	0.0000000000000000	A    	0.2649532787260222	0.06568880010977264
protein_901	     1	1.007947	0.0000000000000000	A    	0.2649532787260222	0.06568880010977264
protein_902	     1	1.007947	0.0000000000000000	A    	0.2649532787260222	0.06568880010977264
protein_903	     7	14.00672	0.0000000000000000	A    	0.3249998524031035	0.7112799996555186
protein_904	     1	1.007947	0.0000000000000000	A    	0.1069078461720523	0.06568880001765333
protein_905	     6	12.01078	0.0000000000000000	A    	0.339966950845074	0.4577295996474049
protein_906	     1	1.007947	0.0000000000000000	A    	0.2471353042642165	0.06568880041196259
protein_907	     6	12.01078	0.0000000000000000	A    	0.3399669507944831	0.3598240005370534
protein_908	     8	15.99943	0.0000000000000000	A    	0.2959921901644686	0.8786399993381852
protein_909	     6	12.01078	0.0000000000000000	A    	0.339966950845074	0.4577295996474049
protein_910	     1	1.007947	0.0000000000000000	A    	0.2649532787260222	0.06568880010977264
protein_911	     1	1.007947	0.0000000000000000	A    	0.2649532787260222	0.06568880010977264
protein_912	     6	12.01078	0.0000000000000000	A    	0.3399669507944831	0.3598240005370534
protein_913	     7	14.00672	0.0000000000000000	A    	0.3249998524031035	0.7112799996555186
protein_914	     1	1.007947	0.0000000000000000	A    	0.1069078461720523	0.06568880001765333
protein_915	     1	1.007947	0.0000000000000000	A    	0.1069078461720523	0.06568880001765333
protein_916	     8	15.99943	0.0000000000000000	A    	0.2959921901644686	0.8786399993381852
protein_917	     7	14.00672	0.0000000000000000	A    	0.3249998524031035	0.7112799996555186
protein_918	     1	1.007947	0.0000000000000000	A    	0.1069078461720523	0.06568880001765333
protein_919	     6	12.01078	0.0000000000000000	A    	0.339966950845074	0.4577295996474049
protein_920	     1	1.007947	0.0000000000000000	A    	0.2471353042642165	0.06568880041196259
protein_921	     6	12.01078	0.0000000000000000	A    	0.3399669507944831	0.3598240005370534
protein_922	     8	15.99943	0.0000000000000000	A    	0.2959921901644686	0.8786399993381852
protein_923	     6	12.01078	0.0000000000000000	A    	0.339966950845074	0.4577295996474049
protein_924	     1	1.007947	0.0000000000000000	A    	0.2649532787260222	0.06568880010977264
protein_925	     6	12.01078	0.0000000000000000	A    	0.339966950845074	0.4577295996474049
protein_926	     1	1.007947	0.0000000000000000	A    	0.2649532787260222	0.06568880010977264
protein_927	     1	1.007947	0.0000000000000000	A    	0.2649532787260222	0.06568880010977264
protein_928	     1	1.007947	0.0000000000000000	A    	0.2649532787260222	0.06568880010977264
protein_929	     6	12.01078	0.0000000000000000	A    	0.339966950845074	0.4577295996474049
protein_930	     1	1.007947	0.0000000000000000	A    	0.2649532787260222	0.06568880010977264
protein_931	     1	1.007947	0.0000000000000000	A    	0.2649532787260222	0.06568880010977264
protein_932	     1	1.007947	0.0000000000000000	A    	0.2649532787260222	0.06568880010977264
protein_933	     7	14.00672	0.0000000000000000	A    	0.3249998524031035	0.7112799996555186
protein_934	     1	1.007947	0.0000000000000000	A    	0.1069078461720523	0.06568880001765333
protein_935	     6	12.01078	0.0000000000000000	A    	0.339966950845074	0.4577295996474049
protein_936	     1	1.007947	0.0000000000000000	A    	0.2471353042642165	0.06568880041196259
protein_937	     6	12.01078	0.0000000000000000	A    	0.3399669507944831	0.3598240005370534
protein_938	     8	15.99943	0.0000000000000000	A    	0.2959921901644686	0.8786399993381852
protein_939	     6	12.01078	0.0000000000000000	A    	0.339966950845074	0.4577295996474049
protein_940	     1	1.007947	0.0000000000000000	A    	0.2649532787260222	0.06568880010977264
protein_941	     1	1.007947	0.0000000000000000	A    	0.2649532787260222	0.06568880010977264
protein_942	     6	12.01078	0.0000000000000000	A    	0.339966950845074	0.4577295996474049
protein_943	     1	1.007947	0.0000000000000000	A    	0.2649532787260222	0.06568880010977264
protein_944	     1	1.007947	0.0000000000000000	A    	0.2649532787260222	0.06568880010977264
protein_945	     6	12.01078	0.0000000000000000	A    	0.339966950845074	0.4577295996474049
protein_946	     1	1.007947	0.0000000000000000	A    	0.2649532787260222	0.06568880010977264
protein_947	     1	1.007947	0.0000000000000000	A    	0.2649532787260222	0.06568880010977264
protein_948	     6	12.01078	0.0000000000000000	A    	0.339966950845074	0.4577295996474049
protein_949	     1	1.007947	0.0000000000000000	A    	0.1959977179007358	0.06568880026244604
protein_950	     1	1.007947	0.0000000000000000	A    	0.1959977179007358	0.06568880026244604
protein_951	     7	14.00672	0.0000000000000000	A    	0.3249998524031035	0.7112799996555186
protein_952	     1	1.007947	0.0000000000000000	A    	0.1069078461720523	0.06568880001765333
protein_953	     1	1.007947	0.0000000000000000	A    	0.1069078461720523	0.06568880001765333
protein_954	     1	1.007947	0.0000000000000000	A    	0.1069078461720523	0.06568880001765333
protein_955	     7	14.00672	0.0000000000000000	A    	0.3249998524031035	0.7112799996555186
protein_956	     1	1.007947	0.0000000000000000	A    	0.1069078461720523	0.06568880001765333
protein_957	     6	12.01078	0.0000000000000000	A    	0.339966950845074	0.4577295996474049
protein_958	     1	1.007947	0.0000000000000000	A    	0.2471353042642165	0.06568880041196259
protein_959	     6	12.01078	0.0000000000000000	A    	0.3399669507944831	0.3598240005370534
protein_960	     8	15.99943	0.0000000000000000	A    	0.2959921901644686	0.8786399993381852
protein_961	     6	12.01078	0.0000000000000000	A    	0.339966950845074	0.4577295996474049
protein_962	     1	1.007947	0.0000000000000000	A    	0.2649532787260222	0.06568880010977264
protein_963	     1	1.007947	0.0000000000000000	A    	0.2649532787260222	0.06568880010977264
protein_964	     6	12.01078	0.0000000000000000	A    	0.3399669507944831	0.3598240005370534
protein_965	     6	12.01078	0.0000000000000000	A    	0.3399669507944831	0.3598240005370534
protein_966	     1	1.007947	0.0000000000000000	A    	0.2510552587583135	0.06275999996435834
protein_967	     7	14.00672	0.0000000000000000	A    	0.3249998524031035	0.7112799996555186
protein_968	     1	1.007947	0.0000000000000000	A    	0.1069078461720523	0.06568880001765333
protein_969	     6	12.01078	0.0000000000000000	A    	0.3399669507944831	0.3598240005370534
protein_970	     1	1.007947	0.0000000000000000	A    	0.2421462715456485	0.06276000013920789
protein_971	     7	14.00672	0.0000000000000000	A    	0.3249998524031035	0.7112799996555186
protein_972	     7	14.00672	0.0000000000000000	A    	0.3249998524031035	0.7112799996555186
protein_973	     1	1.007947	0.0000000000000000	A    	0.1069078461720523	0.06568880001765333
protein_974	     6	12.01078	0.0000000000000000	A    	0.339966950845074	0.4577295996474049
protein_975	     1	1.007947	0.0000000000000000	A    	0.2471353042642165	0.06568880041196259
protein_976	     6	12.01078	0.0000000000000000	A    	0.3399669507944831	0.3598240005370534
protein_977	     8	15.99943	0.0000000000000000	A    	0.2959921901644686	0.8786399993381852
protein_978	     6	12.01078	0.0000000000000000	A    	0.339966950845074	0.4577295996474049
protein_979	     1	1.007947	0.0000000000000000	A    	0.2649532787260222	0.06568880010977264
protein_980	     1	1.007947	0.0000000000000000	A    	0.2649532787260222	0.06568880010977264
protein_981	     6	12.01078	0.0000000000000000	A    	0.3399669507944831	0.3598240005370534
protein_982	     6	12.01078	0.0000000000000000	A    	0.3399669507944831	0.3598240005370534
protein_983	     1	1.007947	0.0000000000000000	A    	0.2599642458735085	0.06276000026869927
protein_984	     6	12.01078	0.0000000000000000	A    	0.3399669507944831	0.3598240005370534
protein_985	     1	1.007947	0.0000000000000000	A    	0.2599642458735085	0.06276000026869927
protein_986	     6	12.01078	0.0000000000000000	A    	0.3399669507944831	0.3598240005370534
protein_987	     1	1.007947	0.0000000000000000	A    	0.2599642458735085	0.06276000026869927
protein_988	     6	12.01078	0.0000000000000000	A    	0.3399669507944831	0.3598240005370534
protein_989	     1	1.007947	0.0000000000000000	A    	0.2599642458735085	0.06276000026869927
protein_990	     6	12.01078	0.0000000000000000	A    	0.3399669507944831	0.3598240005370534
protein_991	     8	15.99943	0.0000000000000000	A    	0.3066473387458142	0.8803136010405576
protein_992	     1	1.007947	0.0000000000000000	A    	0	0
protein_993	     7	14.00672	0.0000000000000000	A    	0.3249998524031035	0.7112799996555186
protein_994	     1	1.007947	0.0000000000000000	A    	0.1069078461720523	0.06568880001765333
protein_995	     6	12.01078	0.0000000000000000	A    	0.339966950845074	0.4577295996474049
protein_996	     1	1.007947	0.0000000000000000	A    	0.2471353042642165	0.06568880041196259
protein_997	     6	12.01078	0.0000000000000000	A    	0.3399669507944831	0.3598240005370534
protein_998	     8	15.99943	0.0000000000000000	A    	0.2959921901644686	0.8786399993381852
protein_999	     6	12.01078	0.0000000000000000	A    	0.339966950845074	0.4577295996474049
protein_1000	     1	1.007947	0.0000000000000000	A    	0.2649532787260222	0.06568880010977264
protein_1001	     1	1.007947	0.0000000000000000	A    	0.2649532787260222	0.06568880010977264
protein_1002	     6	12.01078	0.0000000000000000	A    	0.339966950845074	0.4577295996474049
protein_1003	     1	1.007947	0.0000000000000000	A    	0.2649532787260222	0.06568880010977264
protein_1004	     6	12.01078	0.0000000000000000	A    	0.339966950845074	0.4577295996474049
protein_1005	     1	1.007947	0.0000000000000000	A    	0.2649532787260222	0.06568880010977264
protein_1006	     1	1.007947	0.0000000000000000	A    	0.2649532787260222	0.06568880010977264
protein_1007	     1	1.007947	0.0000000000000000	A    	0.2649532787260222	0.06568880010977264
protein_1008	     6	12.01078	0.0000000000000000	A    	0.339966950845074	0.4577295996474049
protein_1009	     1	1.007947	0.0000000000000000	A    	0.2649532787260222	0.06568880010977264
protein_1010	     1	1.007947	0.0000000000000000	A    	0.2649532787260222	0.06568880010977264
protein_1011	     1	1.007947	0.0000000000000000	A    	0.2649532787260222	0.06568880010977264
protein_1012	     7	14.00672	0.0000000000000000	A    	0.3249998524031035	0.7112799996555186
protein_1013	     1	1.007947	0.0000000000000000	A    	0.1069078461720523	0.06568880001765333
protein_1014	     6	12.01078	0.0000000000000000	A    	0.339966950845074	0.4577295996474049
protein_1015	     1	1.007947	0.0000000000000000	A    	0.2471353042642165	0.06568880041196259
protein_1016	     6	12.01078	0.0000000000000000	A    	0.3399669507944831	0.3598240005370534
protein_1017	     8	15.99943	0.0000000000000000	A    	0.2959921901644686	0.8786399993381852
protein_1018	     6	12.01078	0.0000000000000000	A    	0.339966950845074	0.4577295996474049
protein_1019	     1	1.007947	0.0000000000000000	A    	0.2649532787260222	0.06568880010977264
protein_1020	     6	12.01078	0.0000000000000000	A    	0.339966950845074	0.4577295996474049
protein_1021	     1	1.007947	0.0000000000000000	A    	0.2649532787260222	0.06568880010977264
protein_1022	     1	1.007947	0.0000000000000000	A    	0.2649532787260222	0.06568880010977264
protein_1023	     6	12.01078	0.0000000000000000	A    	0.339966950845074	0.4577295996474049
protein_1024	     1	1.007947	0.0000000000000000	A    	0.2649532787260222	0.06568880010977264
protein_1025	     1	1.007947	0.0000000000000000	A    	0.2649532787260222	0.06568880010977264
protein_1026	     1	1.007947	0.0000000000000000	A    	0.2649532787260222	0.06568880010977264
protein_1027	     6	12.01078	0.0000000000000000	A    	0.339966950845074	0.4577295996474049
protein_1028	     1	1.007947	0.0000000000000000	A    	0.2649532787260222	0.06568880010977264
protein_1029	     1	1.007947	0.0000000000000000	A    	0.2649532787260222	0.06568880010977264
protein_1030	     1	1.007947	0.0000000000000000	A    	0.2649532787260222	0.06568880010977264
protein_1031	     7	14.00672	0.0000000000000000	A    	0.3249998524031035	0.7112799996555186
protein_1032	     1	1.007947	0.0000000000000000	A    	0.1069078461720523	0.06568880001765333
protein_1033	     6	12.01078	0.0000000000000000	A    	0.339966950845074	0.4577295996474049
protein_1034	     1	1.007947	0.0000000000000000	A    	0.2471353042642165	0.06568880041196259
protein_1035	     6	12.01078	0.0000000000000000	A    	0.3399669507944831	0.3598240005370534
protein_1036	     8	15.99943	0.0000000000000000	A    	0.2959921901644686	0.8786399993381852
protein_1037	     6	12.01078	0.0000000000000000	A    	0.339966950845074	0.4577295996474049
protein_1038	     1	1.007947	0.0000000000000000	A    	0.2649532787260222	0.06568880010977264
protein_1039	     1	1.007947	0.0000000000000000	A    	0.2649532787260222	0.06568880010977264
protein_1040	     6	12.01078	0.0000000000000000	A    	0.339966950845074	0.4577295996474049
protein_1041	     1	1.007947	0.0000000000000000	A    	0.2649532787260222	0.06568880010977264
protein_1042	     1	1.007947	0.0000000000000000	A    	0.2649532787260222	0.06568880010977264
protein_1043	     6	12.01078	0.0000000000000000	A    	0.339966950845074	0.4577295996474049
protein_1044	     1	1.007947	0.0000000000000000	A    	0.2471353042642165	0.06568880041196259
protein_1045	     1	1.007947	0.0000000000000000	A    	0.2471353042642165	0.06568880041196259
protein_1046	     7	14.00672	0.0000000000000000	A    	0.3249998524031035	0.7112799996555186
protein_1047	     1	1.007947	0.0000000000000000	A    	0.1069078461720523	0.06568880001765333
protein_1048	     6	12.01078	0.0000000000000000	A    	0.3399669507944831	0.3598240005370534
protein_1049	     7	14.00672	0.0000000000000000	A    	0.3249998524031035	0.7112799996555186
protein_1050	     1	1.007947	0.0000000000000000	A    	0.1069078461720523	0.06568880001765333
protein_1051	     1	1.007947	0.0000000000000000	A    	0.1069078461720523	0.06568880001765333
protein_1052	     7	14.00672	0.0000000000000000	A    	0.3249998524031035	0.7112799996555186
protein_1053	     1	1.007947	0.0000000000000000	A    	0.1069078461720523	0.06568880001765333
protein_1054	     1	1.007947	0.0000000000000000	A    	0.1069078461720523	0.06568880001765333
protein_1055	     7	14.00672	0.0000000000000000	A    	0.3249998524031035	0.7112799996555186
protein_1056	     1	1.007947	0.0000000000000000	A    	0.1069078461720523	0.06568880001765333
protein_1057	     6	12.01078	0.0000000000000000	A    	0.339966950845074	0.4577295996474049
protein_1058	     1	1.007947	0.0000000000000000	A    	0.2471353042642165	0.06568880041196259
protein_1059	     6	12.01078	0.0000000000000000	A    	0.3399669507944831	0.3598240005370534
protein_1060	     8	15.99943	0.0000000000000000	A    	0.2959921901644686	0.8786399993381852
protein_1061	     6	12.01078	0.0000000000000000	A    	0.339966950845074	0.4577295996474049
protein_1062	     1	1.007947	0.0000000000000000	A    	0.2649532787260222	0.06568880010977264
protein_1063	     1	1.007947	0.0000000000000000	A    	0.2649532787260222	0.06568880010977264
protein_1064	     6	12.01078	0.0000000000000000	A    	0.339966950845074	0.4577295996474049
protein_1065	     1	1.007947	0.0000000000000000	A    	0.2649532787260222	0.06568880010977264
protein_1066	     1	1.007947	0.0000000000000000	A    	0.2649532787260222	0.06568880010977264
protein_1067	     6	12.01078	0.0000000000000000	A    	0.339966950845074	0.4577295996474049
protein_1068	     1	1.007947	0.0000000000000000	A    	0.2649532787260222	0.06568880010977264
protein_1069	     1	1.007947	0.0000000000000000	A    	0.2649532787260222	0.06568880010977264
protein_1070	     6	12.01078	0.0000000000000000	A    	0.339966950845074	0.4577295996474049
protein_1071	     1	1.007947	0.0000000000000000	A    	0.1959977179007358	0.06568880026244604
protein_1072	     1	1.007947	0.0000000000000000	A    	0.1959977179007358	0.06568880026244604
protein_1073	     7	14.00672	0.0000000000000000	A    	0.3249998524031035	0.7112799996555186
protein_1074	     1	1.007947	0.0000000000000000	A    	0.1069078461720523	0.06568880001765333
protein_1075	     1	1.007947	0.0000000000000000	A    	0.1069078461720523	0.06568880001765333
protein_1076	     1	1.007947	0.0000000000000000	A    	0.1069078461720523	0.06568880001765333
protein_1077	     7	14.00672	0.0000000000000000	A    	0.3249998524031035	0.7112799996555186
protein_1078	     1	1.007947	0.0000000000000000	A    	0.1069078461720523	0.06568880001765333
protein_1079	     6	12.01078	0.0000000000000000	A    	0.339966950845074	0.4577295996474049
protein_1080	     1	1.007947	0.0000000000000000	A    	0.2471353042642165	0.06568880041196259
protein_1081	     6	12.01078	0.0000000000000000	A    	0.3399669507944831	0.3598240005370534
protein_1082	     8	15.99943	0.0000000000000000	A    	0.2959921901644686	0.8786399993381852
protein_1083	     6	12.01078	0.0000000000000000	A    	0.339966950845074	0.4577295996474049
protein_1084	     1	1.007947	0.0000000000000000	A    	0.2649532787260222	0.06568880010977264
protein_1085	     1	1.007947	0.0000000000000000	A    	0.2649532787260222	0.06568880010977264
protein_1086	     6	12.01078	0.0000000000000000	A    	0.339966950845074	0.4577295996474049
protein_1087	     1	1.007947	0.0000000000000000	A    	0.2649532787260222	0.06568880010977264
protein_1088	     6	12.01078	0.0000000000000000	A    	0.339966950845074	0.4577295996474049
protein_1089	     1	1.007947	0.0000000000000000	A    	0.2649532787260222	0.06568880010977264
protein_1090	     1	1.007947	0.0000000000000000	A    	0.2649532787260222	0.06568880010977264
protein_1091	     1	1.007947	0.0000000000000000	A    	0.2649532787260222	0.06568880010977264
protein_1092	     6	12.01078	0.0000000000000000	A    	0.339966950845074	0.4577295996474049
protein_1093	     1	1.007947	0.0000000000000000	A    	0.2649532787260222	0.06568880010977264
protein_1094	     1	1.007947	0.0000000000000000	A    	0.2649532787260222	0.06568880010977264
protein_1095	     1	1.007947	0.0000000000000000	A    	0.2649532787260222	0.06568880010977264
protein_1096	     7	14.00672	0.0000000000000000	A    	0.3249998524031035	0.7112799996555186
protein_1097	     1	1.007947	0.0000000000000000	A    	0.1069078461720523	0.06568880001765333
protein_1098	     6	12.01078	0.0000000000000000	A    	0.339966950845074	0.4577295996474049
protein_1099	     1	1.007947	0.0000000000000000	A    	0.2471353042642165	0.06568880041196259
protein_1100	     6	12.01078	0.0000000000000000	A    	0.3399669507944831	0.3598240005370534
protein_1101	     8	15.99943	0.0000000000000000	A    	0.2959921901644686	0.8786399993381852
protein_1102	     6	12.01078	0.0000000000000000	A    	0.339966950845074	0.4577295996474049
protein_1103	     1	1.007947	0.0000000000000000	A    	0.2649532787260222	0.06568880010977264
protein_1104	     1	1.007947	0.0000000000000000	A    	0.2649532787260222	0.06568880010977264
protein_1105	     6	12.01078	0.0000000000000000	A    	0.3399669507944831	0.3598240005370534
protein_1106	     8	15.99943	0.0000000000000000	A    	0.2959921901644686	0.8786399993381852
protein_1107	     8	15.99943	0.0000000000000000	A    	0.2959921901644686	0.8786399993381852
protein_1108	     7	14.00672	0.0000000000000000	A    	0.3249998524031035	0.7112799996555186
protein_1109	     1	1.007947	0.0000000000000000	A    	0.1069078461720523	0.06568880001765333
protein_1110	     6	12.01078	0.0000000000000000	A    	0.339966950845074	0.4577295996474049
protein_1111	     1	1.007947	0.0000000000000000	A    	0.2471353042642165	0.06568880041196259
protein_1112	     6	12.01078	0.0000000000000000	A    	0.3399669507944831	0.3598240005370534
protein_1113	     8	15.99943	0.0000000000000000	A    	0.2959921901644686	0.8786399993381852
protein_1114	     6	12.01078	0.0000000000000000	A    	0.339966950845074	0.4577295996474049
protein_1115	     1	1.007947	0.0000000000000000	A    	0.2471353042642165	0.06568880041196259
protein_1116	     1	1.007947	0.0000000000000000	A    	0.2471353042642165	0.06568880041196259
protein_1117	     8	15.99943	0.0000000000000000	A    	0.3066473387458142	0.8803136010405576
protein_1118	     1	1.007947	0.0000000000000000	A    	0	0
protein_1119	     7	14.00672	0.0000000000000000	A    	0.3249998524031035	0.7112799996555186
protein_1120	     1	1.007947	0.0000000000000000	A    	0.1069078461720523	0.06568880001765333
protein_1121	     6	12.01078	0.0000000000000000	A    	0.339966950845074	0.4577295996474049
protein_1122	     1	1.007947	0.0000000000000000	A    	0.2471353042642165	0.06568880041196259
protein_1123	     1	1.007947	0.0000000000000000	A    	0.2471353042642165	0.06568880041196259
protein_1124	     6	12.01078	0.0000000000000000	A    	0.3399669507944831	0.3598240005370534
protein_1125	     8	15.99943	0.0000000000000000	A    	0.2959921901644686	0.8786399993381852
protein_1126	     7	14.00672	0.0000000000000000	A    	0.3249998524031035	0.7112799996555186
protein_1127	     1	1.007947	0.0000000000000000	A    	0.1069078461720523	0.06568880001765333
protein_1128	     6	12.01078	0.0000000000000000	A    	0.339966950845074	0.4577295996474049
protein_1129	     1	1.007947	0.0000000000000000	A    	0.2471353042642165	0.06568880041196259
protein_1130	     1	1.007947	0.0000000000000000	A    	0.2471353042642165	0.06568880041196259
protein_1131	     6	12.01078	0.0000000000000000	A    	0.3399669507944831	0.3598240005370534
protein_1132	     8	15.99943	0.0000000000000000	A    	0.2959921901644686	0.8786399993381852
protein_1133	     7	14.00672	0.0000000000000000	A    	0.3249998524031035	0.7112799996555186
protein_1134	     1	1.007947	0.0000000000000000	A    	0.1069078461720523	0.06568880001765333
protein_1135	     6	12.01078	0.0000000000000000	A    	0.339966950845074	0.4577295996474049
protein_1136	     1	1.007947	0.0000000000000000	A    	0.2471353042642165	0.06568880041196259
protein_1137	     6	12.01078	0.0000000000000000	A    	0.3399669507944831	0.3598240005370534
protein_1138	     8	15.99943	0.0000000000000000	A    	0.2959921901644686	0.8786399993381852
protein_1139	     6	12.01078	0.0000000000000000	A    	0.339966950845074	0.4577295996474049
protein_1140	     1	1.007947	0.0000000000000000	A    	0.2649532787260222	0.06568880010977264
protein_1141	     1	1.007947	0.0000000000000000	A    	0.2649532787260222	0.06568880010977264
protein_1142	     6	12.01078	0.0000000000000000	A    	0.3399669507944831	0.3598240005370534
protein_1143	     6	12.01078	0.0000000000000000	A    	0.3399669507944831	0.3598240005370534
protein_1144	     1	1.007947	0.0000000000000000	A    	0.2599642458735085	0.06276000026869927
protein_1145	     6	12.01078	0.0000000000000000	A    	0.3399669507944831	0.3598240005370534
protein_1146	     1	1.007947	0.0000000000000000	A    	0.2599642458735085	0.06276000026869927
protein_1147	     6	12.01078	0.0000000000000000	A    	0.3399669507944831	0.3598240005370534
protein_1148	     1	1.007947	0.0000000000000000	A    	0.2599642458735085	0.06276000026869927
protein_1149	     6	12.01078	0.0000000000000000	A    	0.3399669507944831	0.3598240005370534
protein_1150	     1	1.007947	0.0000000000000000	A    	0.2599642458735085	0.06276000026869927
protein_1151	     6	12.01078	0.0000000000000000	A    	0.3399669507944831	0.3598240005370534
protein_1152	     1	1.007947	0.0000000000000000	A    	0.2599642458735085	0.06276000026869927
protein_1153	     7	14.00672	0.0000000000000000	A    	0.3249998524031035	0.7112799996555186
protein_1154	     1	1.007947	0.0000000000000000	A    	0.1069078461720523	0.06568880001765333
protein_1155	     6	12.01078	0.0000000000000000	A    	0.339966950845074	0.4577295996474049
protein_1156	     1	1.007947	0.0000000000000000	A    	0.2471353042642165	0.06568880041196259
protein_1157	     6	12.01078	0.0000000000000000	A    	0.3399669507944831	0.3598240005370534
protein_1158	     8	15.99943	0.0000000000000000	A    	0.2959921901644686	0.8786399993381852
protein_1159	     6	12.01078	0.0000000000000000	A    	0.339966950845074	0.4577295996474049
protein_1160	     1	1.007947	0.0000000000000000	A    	0.2649532787260222	0.06568880010977264
protein_1161	     1	1.007947	0.0000000000000000	A    	0.2649532787260222	0.06568880010977264
protein_1162	     6	12.01078	0.0000000000000000	A    	0.3399669507944831	0.3598240005370534
protein_1163	     6	12.01078	0.0000000000000000	A    	0.3399669507944831	0.3598240005370534
protein_1164	     1	1.007947	0.0000000000000000	A    	0.2599642458735085	0.06276000026869927
protein_1165	     6	12.01078	0.0000000000000000	A    	0.3399669507944831	0.3598240005370534
protein_1166	     1	1.007947	0.0000000000000000	A    	0.2599642458735085	0.06276000026869927
protein_1167	     6	12.01078	0.0000000000000000	A    	0.3399669507944831	0.3598240005370534
protein_1168	     1	1.007947	0.0000000000000000	A    	0.2599642458735085	0.06276000026869927
protein_1169	     6	12.01078	0.0000000000000000	A    	0.3399669507944831	0.3598240005370534
protein_1170	     1	1.007947	0.0000000000000000	A    	0.2599642458735085	0.06276000026869927
protein_1171	     6	12.01078	0.0000000000000000	A    	0.3399669507944831	0.3598240005370534
protein_1172	     8	15.99943	0.0000000000000000	A    	0.3066473387458142	0.8803136010405576
protein_1173	     1	1.007947	0.0000000000000000	A    	0	0
protein_1174	     7	14.00672	0.0000000000000000	A    	0.3249998524031035	0.7112799996555186
protein_1175	     1	1.007947	0.0000000000000000	A    	0.1069078461720523	0.06568880001765333
protein_1176	     6	12.01078	0.0000000000000000	A    	0.339966950845074	0.4577295996474049
protein_1177	     1	1.007947	0.0000000000000000	A    	0.2471353042642165	0.06568880041196259
protein_1178	     6	12.01078	0.0000000000000000	A    	0.3399669507944831	0.3598240005370534
protein_1179	     8	15.99943	0.0000000000000000	A    	0.2959921901644686	0.8786399993381852
protein_1180	     6	12.01078	0.0000000000000000	A    	0.339966950845074	0.4577295996474049
protein_1181	     1	1.007947	0.0000000000000000	A    	0.2649532787260222	0.06568880010977264
protein_1182	     6	12.01078	0.0000000000000000	A    	0.339966950845074	0.4577295996474049
protein_1183	     1	1.007947	0.0000000000000000	A    	0.2649532787260222	0.06568880010977264
protein_1184	     1	1.007947	0.0000000000000000	A    	0.2649532787260222	0.06568880010977264
protein_1185	     6	12.01078	0.0000000000000000	A    	0.339966950845074	0.4577295996474049
protein_1186	     1	1.007947	0.0000000000000000	A    	0.2649532787260222	0.06568880010977264
protein_1187	     1	1.007947	0.0000000000000000	A    	0.2649532787260222	0.06568880010977264
protein_1188	     1	1.007947	0.0000000000000000	A    	0.2649532787260222	0.06568880010977264
protein_1189	     6	12.01078	0.0000000000000000	A    	0.339966950845074	0.4577295996474049
protein_1190	     1	1.007947	0.0000000000000000	A    	0.2649532787260222	0.06568880010977264
protein_1191	     1	1.007947	0.0000000000000000	A    	0.2649532787260222	0.06568880010977264
protein_1192	     1	1.007947	0.0000000000000000	A    	0.2649532787260222	0.06568880010977264
protein_1193	     7	14.00672	0.0000000000000000	A    	0.3249998524031035	0.7112799996555186
protein_1194	     1	1.007947	0.0000000000000000	A    	0.1069078461720523	0.06568880001765333
protein_1195	     6	12.01078	0.0000000000000000	A    	0.339966950845074	0.4577295996474049
protein_1196	     1	1.007947	0.0000000000000000	A    	0.2471353042642165	0.06568880041196259
protein_1197	     6	12.01078	0.0000000000000000	A    	0.3399669507944831	0.3598240005370534
protein_1198	     8	15.99943	0.0000000000000000	A    	0.2959921901644686	0.8786399993381852
protein_1199	     6	12.01078	0.0000000000000000	A    	0.339966950845074	0.4577295996474049
protein_1200	     1	1.007947	0.0000000000000000	A    	0.2471353042642165	0.06568880041196259
protein_1201	     6	12.01078	0.0000000000000000	A    	0.339966950845074	0.4577295996474049
protein_1202	     1	1.007947	0.0000000000000000	A    	0.2649532787260222	0.06568880010977264
protein_1203	     1	1.007947	0.0000000000000000	A    	0.2649532787260222	0.06568880010977264
protein_1204	     1	1.007947	0.0000000000000000	A    	0.2649532787260222	0.06568880010977264
protein_1205	     8	15.99943	0.0000000000000000	A    	0.3066473387458142	0.8803136010405576
protein_1206	     1	1.007947	0.0000000000000000	A    	0	0
protein_1207	     7	14.00672	0.0000000000000000	A    	0.3249998524031035	0.7112799996555186
protein_1208	     1	1.007947	0.0000000000000000	A    	0.1069078461720523	0.06568880001765333
protein_1209	     6	12.01078	0.0000000000000000	A    	0.339966950845074	0.4577295996474049
protein_1210	     1	1.007947	0.0000000000000000	A    	0.2471353042642165	0.06568880041196259
protein_1211	     6	12.01078	0.0000000000000000	A    	0.3399669507944831	0.3598240005370534
protein_1212	     8	15.99943	0.0000000000000000	A    	0.2959921901644686	0.8786399993381852
protein_1213	     6	12.01078	0.0000000000000000	A    	0.339966950845074	0.4577295996474049
protein_1214	     1	1.007947	0.0000000000000000	A    	0.2471353042642165	0.06568880041196259
protein_1215	     1	1.007947	0.0000000000000000	A    	0.2471353042642165	0.06568880041196259
protein_1216	     8	15.99943	0.0000000000000000	A    	0.3066473387458142	0.8803136010405576
protein_1217	     1	1.007947	0.0000000000000000	A    	0	0
protein_1218	     7	14.00672	0.0000000000000000	A    	0.3249998524031035	0.7112799996555186
protein_1219	     1	1.007947	0.0000000000000000	A    	0.1069078461720523	0.06568880001765333
protein_1220	     6	12.01078	0.0000000000000000	A    	0.339966950845074	0.4577295996474049
protein_1221	     1	1.007947	0.0000000000000000	A    	0.2471353042642165	0.06568880041196259
protein_1222	     6	12.01078	0.0000000000000000	A    	0.3399669507944831	0.3598240005370534
protein_1223	     8	15.99943	0.0000000000000000	A    	0.2959921901644686	0.8786399993381852
protein_1224	     6	12.01078	0.0000000000000000	A    	0.339966950845074	0.4577295996474049
protein_1225	     1	1.007947	0.0000000000000000	A    	0.2649532787260222	0.06568880010977264
protein_1226	     1	1.007947	0.0000000000000000	A    	0.2649532787260222	0.06568880010977264
protein_1227	     6	12.01078	0.0000000000000000	A    	0.339966950845074	0.4577295996474049
protein_1228	     1	1.007947	0.0000000000000000	A    	0.2649532787260222	0.06568880010977264
protein_1229	     1	1.007947	0.0000000000000000	A    	0.2649532787260222	0.06568880010977264
protein_1230	     6	12.01078	0.0000000000000000	A    	0.339966950845074	0.4577295996474049
protein_1231	     1	1.007947	0.0000000000000000	A    	0.2471353042642165	0.06568880041196259
protein_1232	     1	1.007947	0.0000000000000000	A    	0.2471353042642165	0.06568880041196259
protein_1233	     7	14.00672	0.0000000000000000	A    	0.3249998524031035	0.7112799996555186
protein_1234	     1	1.007947	0.0000000000000000	A    	0.1069078461720523	0.06568880001765333
protein_1235	     6	12.01078	0.0000000000000000	A    	0.3399669507944831	0.3598240005370534
protein_1236	     7	14.00672	0.0000000000000000	A    	0.3249998524031035	0.7112799996555186
protein_1237	     1	1.007947	0.0000000000000000	A    	0.1069078461720523	0.06568880001765333
protein_1238	     1	1.007947	0.0000000000000000	A    	0.1069078461720523	0.06568880001765333
protein_1239	     7	14.00672	0.0000000000000000	A    	0.3249998524031035	0.7112799996555186
protein_1240	     1	1.007947	0.0000000000000000	A    	0.1069078461720523	0.06568880001765333
protein_1241	     1	1.007947	0.0000000000000000	A    	0.1069078461720523	0.06568880001765333
protein_1242	     7	14.00672	0.0000000000000000	A    	0.3249998524031035	0.7112799996555186
protein_1243	     1	1.007947	0.0000000000000000	A    	0.1069078461720523	0.06568880001765333
protein_1244	     6	12.01078	0.0000000000000000	A    	0.339966950845074	0.4577295996474049
protein_1245	     1	1.007947	0.0000000000000000	A    	0.2471353042642165	0.06568880041196259
protein_1246	     6	12.01078	0.0000000000000000	A    	0.3399669507944831	0.3598240005370534
protein_1247	     8	15.99943	0.0000000000000000	A    	0.2959921901644686	0.8786399993381852
protein_1248	     6	12.01078	0.0000000000000000	A    	0.339966950845074	0.4577295996474049
protein_1249	     1	1.007947	0.0000000000000000	A    	0.2471353042642165	0.06568880041196259
protein_1250	     6	12.01078	0.0000000000000000	A    	0.339966950845074	0.4577295996474049
protein_1251	     1	1.007947	0.0000000000000000	A    	0.2649532787260222	0.06568880010977264
protein_1252	     1	1.007947	0.0000000000000000	A    	0.2649532787260222	0.06568880010977264
protein_1253	     1	1.007947	0.0000000000000000	A    	0.2649532787260222	0.06568880010977264
protein_1254	     8	15.99943	0.0000000000000000	A    	0.3066473387458142	0.8803136010405576
protein_1255	     1	1.007947	0.0000000000000000	A    	0	0
protein_1256	     7	14.00672	0.0000000000000000	A    	0.3249998524031035	0.7112799996555186
protein_1257	     1	1.007947	0.0000000000000000	A    	0.1069078461720523	0.06568880001765333
protein_1258	     6	12.01078	0.0000000000000000	A    	0.339966950845074	0.4577295996474049
protein_1259	     1	1.007947	0.0000000000000000	A    	0.2471353042642165	0.06568880041196259
protein_1260	     6	12.01078	0.0000000000000000	A    	0.3399669507944831	0.3598240005370534
protein_1261	     8	15.99943	0.0000000000000000	A    	0.2959921901644686	0.8786399993381852
protein_1262	     6	12.01078	0.0000000000000000	A    	0.339966950845074	0.4577295996474049
protein_1263	     1	1.007947	0.0000000000000000	A    	0.2649532787260222	0.06568880010977264
protein_1264	     1	1.007947	0.0000000000000000	A    	0.2649532787260222	0.06568880010977264
protein_1265	     6	12.01078	0.0000000000000000	A    	0.339966950845074	0.4577295996474049
protein_1266	     1	1.007947	0.0000000000000000	A    	0.2649532787260222	0.06568880010977264
protein_1267	     1	1.007947	0.0000000000000000	A    	0.2649532787260222	0.06568880010977264
protein_1268	     6	12.01078	0.0000000000000000	A    	0.3399669507944831	0.3598240005370534
protein_1269	     7	14.00672	0.0000000000000000	A    	0.3249998524031035	0.7112799996555186
protein_1270	     1	1.007947	0.0000000000000000	A    	0.1069078461720523	0.06568880001765333
protein_1271	     1	1.007947	0.0000000000000000	A    	0.1069078461720523	0.06568880001765333
protein_1272	     8	15.99943	0.0000000000000000	A    	0.2959921901644686	0.8786399993381852
protein_1273	     7	14.00672	0.0000000000000000	A    	0.3249998524031035	0.7112799996555186
protein_1274	     1	1.007947	0.0000000000000000	A    	0.1069078461720523	0.06568880001765333
protein_1275	     6	12.01078	0.0000000000000000	A    	0.339966950845074	0.4577295996474049
protein_1276	     1	1.007947	0.0000000000000000	A    	0.2471353042642165	0.06568880041196259
protein_1277	     6	12.01078	0.0000000000000000	A    	0.3399669507944831	0.3598240005370534
protein_1278	     8	15.99943	0.0000000000000000	A    	0.2959921901644686	0.8786399993381852
protein_1279	     6	12.01078	0.0000000000000000	A    	0.339966950845074	0.4577295996474049
protein_1280	     1	1.007947	0.0000000000000000	A    	0.2649532787260222	0.06568880010977264
protein_1281	     1	1.007947	0.0000000000000000	A    	0.2649532787260222	0.06568880010977264
protein_1282	     6	12.01078	0.0000000000000000	A    	0.3399669507944831	0.3598240005370534
protein_1283	     6	12.01078	0.0000000000000000	A    	0.3399669507944831	0.3598240005370534
protein_1284	     1	1.007947	0.0000000000000000	A    	0.2599642458735085	0.06276000026869927
protein_1285	     6	12.01078	0.0000000000000000	A    	0.3399669507944831	0.3598240005370534
protein_1286	     1	1.007947	0.0000000000000000	A    	0.2599642458735085	0.06276000026869927
protein_1287	     6	12.01078	0.0000000000000000	A    	0.3399669507944831	0.3598240005370534
protein_1288	     1	1.007947	0.0000000000000000	A    	0.2599642458735085	0.06276000026869927
protein_1289	     6	12.01078	0.0000000000000000	A    	0.3399669507944831	0.3598240005370534
protein_1290	     1	1.007947	0.0000000000000000	A    	0.2599642458735085	0.06276000026869927
protein_1291	     6	12.01078	0.0000000000000000	A    	0.3399669507944831	0.3598240005370534
protein_1292	     1	1.007947	0.0000000000000000	A    	0.2599642458735085	0.06276000026869927
protein_1293	     7	14.00672	0.0000000000000000	A    	0.3249998524031035	0.7112799996555186
protein_1294	     1	1.007947	0.0000000000000000	A    	0.1069078461720523	0.06568880001765333
protein_1295	     6	12.01078	0.0000000000000000	A    	0.339966950845074	0.4577295996474049
protein_1296	     1	1.007947	0.0000000000000000	A    	0.2471353042642165	0.06568880041196259
protein_1297	     6	12.01078	0.0000000000000000	A    	0.3399669507944831	0.3598240005370534
protein_1298	     8	15.99943	0.0000000000000000	A    	0.2959921901644686	0.8786399993381852
protein_1299	     6	12.01078	0.0000000000000000	A    	0.339966950845074	0.4577295996474049
protein_1300	     1	1.007947	0.0000000000000000	A    	0.2649532787260222	0.06568880010977264
protein_1301	     1	1.007947	0.0000000000000000	A    	0.2649532787260222	0.06568880010977264
protein_1302	     6	12.01078	0.0000000000000000	A    	0.3399669507944831	0.3598240005370534
protein_1303	     7	14.00672	0.0000000000000000	A    	0.3249998524031035	0.7112799996555186
protein_1304	     1	1.007947	0.0000000000000000	A    	0.1069078461720523	0.06568880001765333
protein_1305	     1	1.007947	0.0000000000000000	A    	0.1069078461720523	0.06568880001765333
protein_1306	     8	15.99943	0.0000000000000000	A    	0.2959921901644686	0.8786399993381852
protein_1307	     7	14.00672	0.0000000000000000	A    	0.3249998524031035	0.7112799996555186
protein_1308	     1	1.007947	0.0000000000000000	A    	0.1069078461720523	0.06568880001765333
protein_1309	     6	12.01078	0.0000000000000000	A    	0.339966950845074	0.4577295996474049
protein_1310	     1	1.007947	0.0000000000000000	A    	0.2471353042642165	0.06568880041196259
protein_1311	     6	12.01078	0.0000000000000000	A    	0.3399669507944831	0.3598240005370534
protein_1312	     8	15.99943	0.0000000000000000	A    	0.2959921901644686	0.8786399993381852
protein_1313	     6	12.01078	0.0000000000000000	A    	0.339966950845074	0.4577295996474049
protein_1314	     1	1.007947	0.0000000000000000	A    	0.2471353042642165	0.06568880041196259
protein_1315	     1	1.007947	0.0000000000000000	A    	0.2471353042642165	0.06568880041196259
protein_1316	     8	15.99943	0.0000000000000000	A    	0.3066473387458142	0.8803136010405576
protein_1317	     1	1.007947	0.0000000000000000	A    	0	0
protein_1318	     7	14.00672	0.0000000000000000	A    	0.3249998524031035	0.7112799996555186
protein_1319	     1	1.007947	0.0000000000000000	A    	0.1069078461720523	0.06568880001765333
protein_1320	     6	12.01078	0.0000000000000000	A    	0.339966950845074	0.4577295996474049
protein_1321	     1	1.007947	0.0000000000000000	A    	0.2471353042642165	0.06568880041196259
protein_1322	     6	12.01078	0.0000000000000000	A    	0.3399669507944831	0.3598240005370534
protein_1323	     8	15.99943	0.0000000000000000	A    	0.2959921901644686	0.8786399993381852
protein_1324	     6	12.01078	0.0000000000000000	A    	0.339966950845074	0.4577295996474049
protein_1325	     1	1.007947	0.0000000000000000	A    	0.2649532787260222	0.06568880010977264
protein_1326	     1	1.007947	0.0000000000000000	A    	0.2649532787260222	0.06568880010977264
protein_1327	     6	12.01078	0.0000000000000000	A    	0.339966950845074	0.4577295996474049
protein_1328	     1	1.007947	0.0000000000000000	A    	0.2649532787260222	0.06568880010977264
protein_1329	     6	12.01078	0.0000000000000000	A    	0.339966950845074	0.4577295996474049
protein_1330	     1	1.007947	0.0000000000000000	A    	0.2649532787260222	0.06568880010977264
protein_1331	     1	1.007947	0.0000000000000000	A    	0.2649532787260222	0.06568880010977264
protein_1332	     1	1.007947	0.0000000000000000	A    	0.2649532787260222	0.06568880010977264
protein_1333	     6	12.01078	0.0000000000000000	A    	0.339966950845074	0.4577295996474049
protein_1334	     1	1.007947	0.0000000000000000	A    	0.2649532787260222	0.06568880010977264
protein_1335	     1	1.007947	0.0000000000000000	A    	0.2649532787260222	0.06568880010977264
protein_1336	     1	1.007947	0.0000000000000000	A    	0.2649532787260222	0.06568880010977264
protein_1337	     7	14.00672	0.0000000000000000	A    	0.3249998524031035	0.7112799996555186
protein_1338	     1	1.007947	0.0000000000000000	A    	0.1069078461720523	0.06568880001765333
protein_1339	     6	12.01078	0.0000000000000000	A    	0.339966950845074	0.4577295996474049
protein_1340	     1	1.007947	0.0000000000000000	A    	0.2471353042642165	0.06568880041196259
protein_1341	     6	12.01078	0.0000000000000000	A    	0.3399669507944831	0.3598240005370534
protein_1342	     8	15.99943	0.0000000000000000	A    	0.2959921901644686	0.8786399993381852
protein_1343	     6	12.01078	0.0000000000000000	A    	0.339966950845074	0.4577295996474049
protein_1344	     1	1.007947	0.0000000000000000	A    	0.2649532787260222	0.06568880010977264
protein_1345	     1	1.007947	0.0000000000000000	A    	0.2649532787260222	0.06568880010977264
protein_1346	     6	12.01078	0.0000000000000000	A    	0.339966950845074	0.4577295996474049
protein_1347	     1	1.007947	0.0000000000000000	A    	0.2649532787260222	0.06568880010977264
protein_1348	     1	1.007947	0.0000000000000000	A    	0.2649532787260222	0.06568880010977264
protein_1349	     6	12.01078	0.0000000000000000	A    	0.3399669507944831	0.3598240005370534
protein_1350	     7	14.00672	0.0000000000000000	A    	0.3249998524031035	0.7112799996555186
protein_1351	     1	1.007947	0.0000000000000000	A    	0.1069078461720523	0.06568880001765333
protein_1352	     1	1.007947	0.0000000000000000	A    	0.1069078461720523	0.06568880001765333
protein_1353	     8	15.99943	0.0000000000000000	A    	0.2959921901644686	0.8786399993381852
protein_1354	     7	14.00672	0.0000000000000000	A    	0.3249998524031035	0.7112799996555186
protein_1355	     1	1.007947	0.0000000000000000	A    	0.1069078461720523	0.06568880001765333
protein_1356	     6	12.01078	0.0000000000000000	A    	0.339966950845074	0.4577295996474049
protein_1357	     1	1.007947	0.0000000000000000	A    	0.2471353042642165	0.06568880041196259
protein_1358	     6	12.01078	0.0000000000000000	A    	0.3399669507944831	0.3598240005370534
protein_1359	     8	15.99943	0.0000000000000000	A    	0.2959921901644686	0.8786399993381852
protein_1360	     6	12.01078	0.0000000000000000	A    	0.339966950845074	0.4577295996474049
protein_1361	     1	1.007947	0.0000000000000000	A    	0.2649532787260222	0.06568880010977264
protein_1362	     1	1.007947	0.0000000000000000	A    	0.2649532787260222	0.06568880010977264
protein_1363	     6	12.01078	0.0000000000000000	A    	0.339966950845074	0.4577295996474049
protein_1364	     1	1.007947	0.0000000000000000	A    	0.2649532787260222	0.06568880010977264
protein_1365	     1	1.007947	0.0000000000000000	A    	0.2649532787260222	0.06568880010977264
protein_1366	     6	12.01078	0.0000000000000000	A    	0.3399669507944831	0.3598240005370534
protein_1367	     7	14.00672	0.0000000000000000	A    	0.3249998524031035	0.7112799996555186
protein_1368	     1	1.007947	0.0000000000000000	A    	0.1069078461720523	0.06568880001765333
protein_1369	     1	1.007947	0.0000000000000000	A    	0.1069078461720523	0.06568880001765333
protein_1370	     8	15.99943	0.0000000000000000	A    	0.2959921901644686	0.8786399993381852
protein_1371	     7	14.00672	0.0000000000000000	A    	0.3249998524031035	0.7112799996555186
protein_1372	     1	1.007947	0.0000000000000000	A    	0.1069078461720523	0.06568880001765333
protein_1373	     6	12.01078	0.0000000000000000	A    	0.339966950845074	0.4577295996474049
protein_1374	     1	1.007947	0.0000000000000000	A    	0.2471353042642165	0.06568880041196259
protein_1375	     6	12.01078	0.0000000000000000	A    	0.3399669507944831	0.3598240005370534
protein_1376	     8	15.99943	0.0000000000000000	A    	0.2959921901644686	0.8786399993381852
protein_1377	     6	12.01078	0.0000000000000000	A    	0.339966950845074	0.4577295996474049
protein_1378	     1	1.007947	0.0000000000000000	A    	0.2649532787260222	0.06568880010977264
protein_1379	     1	1.007947	0.0000000000000000	A    	0.2649532787260222	0.06568880010977264
protein_1380	     6	12.01078	0.0000000000000000	A    	0.339966950845074	0.4577295996474049
protein_1381	     1	1.007947	0.0000000000000000	A    	0.2649532787260222	0.06568880010977264
protein_1382	     6	12.01078	0.0000000000000000	A    	0.339966950845074	0.4577295996474049
protein_1383	     1	1.007947	0.0000000000000000	A    	0.2649532787260222	0.06568880010977264
protein_1384	     1	1.007947	0.0000000000000000	A    	0.2649532787260222	0.06568880010977264
protein_1385	     1	1.007947	0.0000000000000000	A    	0.2649532787260222	0.06568880010977264
protein_1386	     6	12.01078	0.0000000000000000	A    	0.339966950845074	0.4577295996474049
protein_1387	     1	1.007947	0.0000000000000000	A    	0.2649532787260222	0.06568880010977264
protein_1388	     1	1.007947	0.0000000000000000	A    	0.2649532787260222	0.06568880010977264
protein_1389	     1	1.007947	0.0000000000000000	A    	0.2649532787260222	0.06568880010977264
protein_1390	     7	14.00672	0.0000000000000000	A    	0.3249998524031035	0.7112799996555186
protein_1391	     1	1.007947	0.0000000000000000	A    	0.1069078461720523	0.06568880001765333
protein_1392	     6	12.01078	0.0000000000000000	A    	0.339966950845074	0.4577295996474049
protein_1393	     1	1.007947	0.0000000000000000	A    	0.2471353042642165	0.06568880041196259
protein_1394	     6	12.01078	0.0000000000000000	A    	0.3399669507944831	0.3598240005370534
protein_1395	     8	15.99943	0.0000000000000000	A    	0.2959921901644686	0.8786399993381852
protein_1396	     6	12.01078	0.0000000000000000	A    	0.339966950845074	0.4577295996474049
protein_1397	     1	1.007947	0.0000000000000000	A    	0.2649532787260222	0.06568880010977264
protein_1398	     6	12.01078	0.0000000000000000	A    	0.339966950845074	0.4577295996474049
protein_1399	     1	1.007947	0.0000000000000000	A    	0.2649532787260222	0.06568880010977264
protein_1400	     1	1.007947	0.0000000000000000	A    	0.2649532787260222	0.06568880010977264
protein_1401	     1	1.007947	0.0000000000000000	A    	0.2649532787260222	0.06568880010977264
protein_1402	     6	12.01078	0.0000000000000000	A    	0.339966950845074	0.4577295996474049
protein_1403	     1	1.007947	0.0000000000000000	A    	0.2649532787260222	0.06568880010977264
protein_1404	     1	1.007947	0.0000000000000000	A    	0.2649532787260222	0.06568880010977264
protein_1405	     1	1.007947	0.0000000000000000	A    	0.2649532787260222	0.06568880010977264
protein_1406	     7	14.00672	0.0000000000000000	A    	0.3249998524031035	0.7112799996555186
protein_1407	     1	1.007947	0.0000000000000000	A    	0.1069078461720523	0.06568880001765333
protein_1408	     6	12.01078	0.0000000000000000	A    	0.339966950845074	0.4577295996474049
protein_1409	     1	1.007947	0.0000000000000000	A    	0.2471353042642165	0.06568880041196259
protein_1410	     6	12.01078	0.0000000000000000	A    	0.3399669507944831	0.3598240005370534
protein_1411	     8	15.99943	0.0000000000000000	A    	0.2959921901644686	0.8786399993381852
protein_1412	     6	12.01078	0.0000000000000000	A    	0.339966950845074	0.4577295996474049
protein_1413	     1	1.007947	0.0000000000000000	A    	0.2649532787260222	0.06568880010977264
protein_1414	     1	1.007947	0.0000000000000000	A    	0.2649532787260222	0.06568880010977264
protein_1415	     1	1.007947	0.0000000000000000	A    	0.2649532787260222	0.06568880010977264
protein_1416	     7	14.00672	0.0000000000000000	A    	0.3249998524031035	0.7112799996555186
protein_1417	     1	1.007947	0.0000000000000000	A    	0.1069078461720523	0.06568880001765333
protein_1418	     6	12.01078	0.0000000000000000	A    	0.339966950845074	0.4577295996474049
protein_1419	     1	1.007947	0.0000000000000000	A    	0.2471353042642165	0.06568880041196259
protein_1420	     6	12.01078	0.0000000000000000	A    	0.3399669507944831	0.3598240005370534
protein_1421	     8	15.99943	0.0000000000000000	A    	0.2959921901644686	0.8786399993381852
protein_1422	     6	12.01078	0.0000000000000000	A    	0.339966950845074	0.4577295996474049
protein_1423	     1	1.007947	0.0000000000000000	A    	0.2649532787260222	0.06568880010977264
protein_1424	     1	1.007947	0.0000000000000000	A    	0.2649532787260222	0.06568880010977264
protein_1425	     6	12.01078	0.0000000000000000	A    	0.3399669507944831	0.3598240005370534
protein_1426	     6	12.01078	0.0000000000000000	A    	0.3399669507944831	0.3598240005370534
protein_1427	     1	1.007947	0.0000000000000000	A    	0.2599642458735085	0.06276000026869927
protein_1428	     6	12.01078	0.0000000000000000	A    	0.3399669507944831	0.3598240005370534
protein_1429	     1	1.007947	0.0000000000000000	A    	0.2599642458735085	0.06276000026869927
protein_1430	     6	12.01078	0.0000000000000000	A    	0.3399669507944831	0.3598240005370534
protein_1431	     1	1.007947	0.0000000000000000	A    	0.2599642458735085	0.06276000026869927
protein_1432	     6	12.01078	0.0000000000000000	A    	0.3399669507944831	0.3598240005370534
protein_1433	     1	1.007947	0.0000000000000000	A    	0.2599642458735085	0.06276000026869927
protein_1434	     6	12.01078	0.0000000000000000	A    	0.3399669507944831	0.3598240005370534
protein_1435	     8	15.99943	0.0000000000000000	A    	0.3066473387458142	0.8803136010405576
protein_1436	     1	1.007947	0.0000000000000000	A    	0	0
protein_1437	     7	14.00672	0.0000000000000000	A    	0.3249998524031035	0.7112799996555186
protein_1438	     1	1.007947	0.0000000000000000	A    	0.1069078461720523	0.06568880001765333
protein_1439	     6	12.01078	0.0000000000000000	A    	0.339966950845074	0.4577295996474049
protein_1440	     1	1.007947	0.0000000000000000	A    	0.2471353042642165	0.06568880041196259
protein_1441	     6	12.01078	0.0000000000000000	A    	0.3399669507944831	0.3598240005370534
protein_1442	     8	15.99943	0.0000000000000000	A    	0.2959921901644686	0.8786399993381852
protein_1443	     6	12.01078	0.0000000000000000	A    	0.339966950845074	0.4577295996474049
protein_1444	     1	1.007947	0.0000000000000000	A    	0.2649532787260222	0.06568880010977264
protein_1445	     1	1.007947	0.0000000000000000	A    	0.2649532787260222	0.06568880010977264
protein_1446	     6	12.01078	0.0000000000000000	A    	0.3399669507944831	0.3598240005370534
protein_1447	     6	12.01078	0.0000000000000000	A    	0.3399669507944831	0.3598240005370534
protein_1448	     1	1.007947	0.0000000000000000	A    	0.2599642458735085	0.06276000026869927
protein_1449	     6	12.01078	0.0000000000000000	A    	0.3399669507944831	0.3598240005370534
protein_1450	     1	1.007947	0.0000000000000000	A    	0.2599642458735085	0.06276000026869927
protein_1451	     6	12.01078	0.0000000000000000	A    	0.3399669507944831	0.3598240005370534
protein_1452	     1	1.007947	0.0000000000000000	A    	0.2599642458735085	0.06276000026869927
protein_1453	     6	12.01078	0.0000000000000000	A    	0.3399669507944831	0.3598240005370534
protein_1454	     1	1.007947	0.0000000000000000	A    	0.2599642458735085	0.06276000026869927
protein_1455	     6	12.01078	0.0000000000000000	A    	0.3399669507944831	0.3598240005370534
protein_1456	     8	15.99943	0.0000000000000000	A    	0.3066473387458142	0.8803136010405576
protein_1457	     1	1.007947	0.0000000000000000	A    	0	0
protein_1458	     7	14.00672	0.0000000000000000	A    	0.3249998524031035	0.7112799996555186
protein_1459	     1	1.007947	0.0000000000000000	A    	0.1069078461720523	0.06568880001765333
protein_1460	     6	12.01078	0.0000000000000000	A    	0.339966950845074	0.4577295996474049
protein_1461	     1	1.007947	0.0000000000000000	A    	0.2471353042642165	0.06568880041196259
protein_1462	     6	12.01078	0.0000000000000000	A    	0.3399669507944831	0.3598240005370534
protein_1463	     8	15.99943	0.0000000000000000	A    	0.2959921901644686	0.8786399993381852
protein_1464	     6	12.01078	0.0000000000000000	A    	0.339966950845074	0.4577295996474049
protein_1465	     1	1.007947	0.0000000000000000	A    	0.2471353042642165	0.06568880041196259
protein_1466	     1	1.007947	0.0000000000000000	A    	0.2471353042642165	0.06568880041196259
protein_1467	     8	15.99943	0.0000000000000000	A    	0.3066473387458142	0.8803136010405576
protein_1468	     1	1.007947	0.0000000000000000	A    	0	0
protein_1469	     7	14.00672	0.0000000000000000	A    	0.3249998524031035	0.7112799996555186
protein_1470	     1	1.007947	0.0000000000000000	A    	0.1069078461720523	0.06568880001765333
protein_1471	     6	12.01078	0.0000000000000000	A    	0.339966950845074	0.4577295996474049
protein_1472	     1	1.007947	0.0000000000000000	A    	0.2471353042642165	0.06568880041196259
protein_1473	     6	12.01078	0.0000000000000000	A    	0.3399669507944831	0.3598240005370534
protein_1474	     8	15.99943	0.0000000000000000	A    	0.2959921901644686	0.8786399993381852
protein_1475	     6	12.01078	0.0000000000000000	A    	0.339966950845074	0.4577295996474049
protein_1476	     1	1.007947	0.0000000000000000	A    	0.2649532787260222	0.06568880010977264
protein_1477	     1	1.007947	0.0000000000000000	A    	0.2649532787260222	0.06568880010977264
protein_1478	     6	12.01078	0.0000000000000000	A    	0.339966950845074	0.4577295996474049
protein_1479	     1	1.007947	0.0000000000000000	A    	0.2649532787260222	0.06568880010977264
protein_1480	     1	1.007947	0.0000000000000000	A    	0.2649532787260222	0.06568880010977264
protein_1481	     6	12.01078	0.0000000000000000	A    	0.339966950845074	0.4577295996474049
protein_1482	     1	1.007947	0.0000000000000000	A    	0.2649532787260222	0.06568880010977264
protein_1483	     1	1.007947	0.0000000000000000	A    	0.2649532787260222	0.06568880010977264
protein_1484	     6	12.01078	0.0000000000000000	A    	0.339966950845074	0.4577295996474049
protein_1485	     1	1.007947	0.0000000000000000	A    	0.1959977179007358	0.06568880026244604
protein_1486	     1	1.007947	0.0000000000000000	A    	0.1959977179007358	0.06568880026244604
protein_1487	     7	14.00672	0.0000000000000000	A    	0.3249998524031035	0.7112799996555186
protein_1488	     1	1.007947	0.0000000000000000	A    	0.1069078461720523	0.06568880001765333
protein_1489	     1	1.007947	0.0000000000000000	A    	0.1069078461720523	0.06568880001765333
protein_1490	     1	1.007947	0.0000000000000000	A    	0.1069078461720523	0.06568880001765333
protein_1491	     7	14.00672	0.0000000000000000	A    	0.3249998524031035	0.7112799996555186
protein_1492	     1	1.007947	0.0000000000000000	A    	0.1069078461720523	0.06568880001765333
protein_1493	     6	12.01078	0.0000000000000000	A    	0.339966950845074	0.4577295996474049
protein_1494	     1	1.007947	0.0000000000000000	A    	0.2471353042642165	0.06568880041196259
protein_1495	     6	12.01078	0.0000000000000000	A    	0.3399669507944831	0.3598240005370534
protein_1496	     8	15.99943	0.0000000000000000	A    	0.2959921901644686	0.8786399993381852
protein_1497	     6	12.01078	0.0000000000000000	A    	0.339966950845074	0.4577295996474049
protein_1498	     1	1.007947	0.0000000000000000	A    	0.2649532787260222	0.06568880010977264
protein_1499	     1	1.007947	0.0000000000000000	A    	0.2649532787260222	0.06568880010977264
protein_1500	     6	12.01078	0.0000000000000000	A    	0.3399669507944831	0.3598240005370534
protein_1501	     6	12.01078	0.0000000000000000	A    	0.3399669507944831	0.3598240005370534
protein_1502	     1	1.007947	0.0000000000000000	A    	0.2510552587583135	0.06275999996435834
protein_1503	     7	14.00672	0.0000000000000000	A    	0.3249998524031035	0.7112799996555186
protein_1504	     1	1.007947	0.0000000000000000	A    	0.1069078461720523	0.06568880001765333
protein_1505	     6	12.01078	0.0000000000000000	A    	0.3399669507944831	0.3598240005370534
protein_1506	     1	1.007947	0.0000000000000000	A    	0.2421462715456485	0.06276000013920789
protein_1507	     7	14.00672	0.0000000000000000	A    	0.3249998524031035	0.7112799996555186
protein_1508	     7	14.00672	0.0000000000000000	A    	0.3249998524031035	0.7112799996555186
protein_1509	     1	1.007947	0.0000000000000000	A    	0.1069078461720523	0.06568880001765333
protein_1510	     6	12.01078	0.0000000000000000	A    	0.339966950845074	0.4577295996474049
protein_1511	     1	1.007947	0.0000000000000000	A    	0.2471353042642165	0.06568880041196259
protein_1512	     6	12.01078	0.0000000000000000	A    	0.3399669507944831	0.3598240005370534
protein_1513	     8	15.99943	0.0000000000000000	A    	0.2959921901644686	0.8786399993381852
protein_1514	     6	12.01078	0.0000000000000000	A    	0.339966950845074	0.4577295996474049
protein_1515	     1	1.007947	0.0000000000000000	A    	0.2649532787260222	0.06568880010977264
protein_1516	     1	1.007947	0.0000000000000000	A    	0.2649532787260222	0.06568880010977264
protein_1517	     1	1.007947	0.0000000000000000	A    	0.2649532787260222	0.06568880010977264
protein_1518	     7	14.00672	0.0000000000000000	A    	0.3249998524031035	0.7112799996555186
protein_1519	     1	1.007947	0.0000000000000000	A    	0.1069078461720523	0.06568880001765333
protein_1520	     6	12.01078	0.0000000000000000	A    	0.339966950845074	0.4577295996474049
protein_1521	     1	1.007947	0.0000000000000000	A    	0.2471353042642165	0.06568880041196259
protein_1522	     6	12.01078	0.0000000000000000	A    	0.3399669507944831	0.3598240005370534
protein_1523	     8	15.99943	0.0000000000000000	A    	0.2959921901644686	0.8786399993381852
protein_1524	     6	12.01078	0.0000000000000000	A    	0.339966950845074	0.4577295996474049
protein_1525	     1	1.007947	0.0000000000000000	A    	0.2649532787260222	0.06568880010977264
protein_1526	     1	1.007947	0.0000000000000000	A    	0.2649532787260222	0.06568880010977264
protein_1527	     6	12.01078	0.0000000000000000	A    	0.3399669507944831	0.3598240005370534
protein_1528	     8	15.99943	0.0000000000000000	A    	0.2959921901644686	0.8786399993381852
protein_1529	     8	15.99943	0.0000000000000000	A    	0.2959921901644686	0.8786399993381852
protein_1530	     7	14.00672	0.0000000000000000	A    	0.3249998524031035	0.7112799996555186
protein_1531	     1	1.007947	0.0000000000000000	A    	0.1069078461720523	0.06568880001765333
protein_1532	     6	12.01078	0.0000000000000000	A    	0.339966950845074	0.4577295996474049
protein_1533	     1	1.007947	0.0000000000000000	A    	0.2471353042642165	0.06568880041196259
protein_1534	     1	1.007947	0.0000000000000000	A    	0.2471353042642165	0.06568880041196259
protein_1535	     6	12.01078	0.0000000000000000	A    	0.3399669507944831	0.3598240005370534
protein_1536	     8	15.99943	0.0000000000000000	A    	0.2959921901644686	0.8786399993381852
protein_1537	     7	14.00672	0.0000000000000000	A    	0.3249998524031035	0.7112799996555186
protein_1538	     1	1.007947	0.0000000000000000	A    	0.1069078461720523	0.06568880001765333
protein_1539	     6	12.01078	0.0000000000000000	A    	0.339966950845074	0.4577295996474049
protein_1540	     1	1.007947	0.0000000000000000	A    	0.2471353042642165	0.06568880041196259
protein_1541	     6	12.01078	0.0000000000000000	A    	0.3399669507944831	0.3598240005370534
protein_1542	     8	15.99943	0.0000000000000000	A    	0.2959921901644686	0.8786399993381852
protein_1543	     6	12.01078	0.0000000000000000	A    	0.339966950845074	0.4577295996474049
protein_1544	     1	1.007947	0.0000000000000000	A    	0.2649532787260222	0.06568880010977264
protein_1545	     1	1.007947	0.0000000000000000	A    	0.2649532787260222	0.06568880010977264
protein_1546	     6	12.01078	0.0000000000000000	A    	0.339966950845074	0.4577295996474049
protein_1547	     1	1.007947	0.0000000000000000	A    	0.2649532787260222	0.06568880010977264
protein_1548	     6	12.01078	0.0000000000000000	A    	0.339966950845074	0.4577295996474049
protein_1549	     1	1.007947	0.0000000000000000	A    	0.2649532787260222	0.06568880010977264
protein_1550	     1	1.007947	0.0000000000000000	A    	0.2649532787260222	0.06568880010977264
protein_1551	     1	1.007947	0.0000000000000000	A    	0.2649532787260222	0.06568880010977264
protein_1552	     6	12.01078	0.0000000000000000	A    	0.339966950845074	0.4577295996474049
protein_1553	     1	1.007947	0.0000000000000000	A    	0.2649532787260222	0.06568880010977264
protein_1554	     1	1.007947	0.0000000000000000	A    	0.2649532787260222	0.06568880010977264
protein_1555	     1	1.007947	0.0000000000000000	A    	0.2649532787260222	0.06568880010977264
protein_1556	     7	14.00672	0.0000000000000000	A    	0.3249998524031035	0.7112799996555186
protein_1557	     1	1.007947	0.0000000000000000	A    	0.1069078461720523	0.06568880001765333
protein_1558	     6	12.01078	0.0000000000000000	A    	0.339966950845074	0.4577295996474049
protein_1559	     1	1.007947	0.0000000000000000	A    	0.2471353042642165	0.06568880041196259
protein_1560	     6	12.01078	0.0000000000000000	A    	0.3399669507944831	0.3598240005370534
protein_1561	     8	15.99943	0.0000000000000000	A    	0.2959921901644686	0.8786399993381852
protein_1562	     6	12.01078	0.0000000000000000	A    	0.339966950845074	0.4577295996474049
protein_1563	     1	1.007947	0.0000000000000000	A    	0.2471353042642165	0.06568880041196259
protein_1564	     1	1.007947	0.0000000000000000	A    	0.2471353042642165	0.06568880041196259
protein_1565	    16	32.0655	0.0000000000000000	A    	0.3563594872561356	1.046
protein_1566	     1	1.007947	0.0000000000000000	A    	0.1069078461720523	0.06568880001765333
protein_1567	     7	14.00672	0.0000000000000000	A    	0.3249998524031035	0.7112799996555186
protein_1568	     1	1.007947	0.0000000000000000	A    	0.1069078461720523	0.06568880001765333
protein_1569	     6	12.01078	0.0000000000000000	A    	0.339966950845074	0.4577295996474049
protein_1570	     1	1.007947	0.0000000000000000	A    	0.2471353042642165	0.06568880041196259
protein_1571	     6	12.01078	0.0000000000000000	A    	0.3399669507944831	0.3598240005370534
protein_1572	     8	15.99943	0.0000000000000000	A    	0.2959921901644686	0.8786399993381852
protein_1573	     6	12.01078	0.0000000000000000	A    	0.339966950845074	0.4577295996474049
protein_1574	     1	1.007947	0.0000000000000000	A    	0.2649532787260222	0.06568880010977264
protein_1575	     1	1.007947	0.0000000000000000	A    	0.2649532787260222	0.06568880010977264
protein_1576	     6	12.01078	0.0000000000000000	A    	0.3399669507944831	0.3598240005370534
protein_1577	     6	12.01078	0.0000000000000000	A    	0.3399669507944831	0.3598240005370534
protein_1578	     1	1.007947	0.0000000000000000	A    	0.2510552587583135	0.06275999996435834
protein_1579	     7	14.00672	0.0000000000000000	A    	0.3249998524031035	0.7112799996555186
protein_1580	     1	1.007947	0.0000000000000000	A    	0.1069078461720523	0.06568880001765333
protein_1581	     6	12.01078	0.0000000000000000	A    	0.3399669507944831	0.3598240005370534
protein_1582	     1	1.007947	0.0000000000000000	A    	0.2421462715456485	0.06276000013920789
protein_1583	     7	14.00672	0.0000000000000000	A    	0.3249998524031035	0.7112799996555186
protein_1584	     7	14.00672	0.0000000000000000	A    	0.3249998524031035	0.7112799996555186
protein_1585	     1	1.007947	0.0000000000000000	A    	0.1069078461720523	0.06568880001765333
protein_1586	     6	12.01078	0.0000000000000000	A    	0.339966950845074	0.4577295996474049
protein_1587	     1	1.007947	0.0000000000000000	A    	0.2471353042642165	0.06568880041196259
protein_1588	     6	12.01078	0.0000000000000000	A    	0.3399669507944831	0.3598240005370534
protein_1589	     8	15.99943	0.0000000000000000	A    	0.2959921901644686	0.8786399993381852
protein_1590	     6	12.01078	0.0000000000000000	A    	0.339966950845074	0.4577295996474049
protein_1591	     1	1.007947	0.0000000000000000	A    	0.2649532787260222	0.06568880010977264
protein_1592	     1	1.007947	0.0000000000000000	A    	0.2649532787260222	0.06568880010977264
protein_1593	     6	12.01078	0.0000000000000000	A    	0.339966950845074	0.4577295996474049
protein_1594	     1	1.007947	0.0000000000000000	A    	0.2649532787260222	0.06568880010977264
protein_1595	     1	1.007947	0.0000000000000000	A    	0.2649532787260222	0.06568880010977264
protein_1596	     6	12.01078	0.0000000000000000	A    	0.339966950845074	0.4577295996474049
protein_1597	     1	1.007947	0.0000000000000000	A    	0.2471353042642165	0.06568880041196259
protein_1598	     1	1.007947	0.0000000000000000	A    	0.2471353042642165	0.06568880041196259
protein_1599	     7	14.00672	0.0000000000000000	A    	0.3249998524031035	0.7112799996555186
protein_1600	     1	1.007947	0.0000000000000000	A    	0.1069078461720523	0.06568880001765333
protein_1601	     6	12.01078	0.0000000000000000	A    	0.3399669507944831	0.3598240005370534
protein_1602	     7	14.00672	0.0000000000000000	A    	0.3249998524031035	0.7112799996555186
protein_1603	     1	1.007947	0.0000000000000000	A    	0.1069078461720523	0.06568880001765333
protein_1604	     1	1.007947	0.0000000000000000	A    	0.1069078461720523	0.06568880001765333
protein_1605	     7	14.00672	0.0000000000000000	A    	0.3249998524031035	0.7112799996555186
protein_1606	     1	1.007947	0.0000000000000000	A    	0.1069078461720523	0.06568880001765333
protein_1607	     1	1.007947	0.0000000000000000	A    	0.1069078461720523	0.06568880001765333
protein_1608	     7	14.00672	0.0000000000000000	A    	0.3249998524031035	0.7112799996555186
protein_1609	     1	1.007947	0.0000000000000000	A    	0.1069078461720523	0.06568880001765333
protein_1610	     6	12.01078	0.0000000000000000	A    	0.339966950845074	0.4577295996474049
protein_1611	     1	1.007947	0.0000000000000000	A    	0.2471353042642165	0.06568880041196259
protein_1612	     6	12.01078	0.0000000000000000	A    	0.3399669507944831	0.3598240005370534
protein_1613	     8	15.99943	0.0000000000000000	A    	0.2959921901644686	0.8786399993381852
protein_1614	     6	12.01078	0.0000000000000000	A    	0.339966950845074	0.4577295996474049
protein_1615	     1	1.007947	0.0000000000000000	A    	0.2649532787260222	0.06568880010977264
protein_1616	     1	1.007947	0.0000000000000000	A    	0.2649532787260222	0.06568880010977264
protein_1617	     6	12.01078	0.0000000000000000	A    	0.339966950845074	0.4577295996474049
protein_1618	     1	1.007947	0.0000000000000000	A    	0.2649532787260222	0.06568880010977264
protein_1619	     6	12.01078	0.0000000000000000	A    	0.339966950845074	0.4577295996474049
protein_1620	     1	1.007947	0.0000000000000000	A    	0.2649532787260222	0.06568880010977264
protein_1621	     1	1.007947	0.0000000000000000	A    	0.2649532787260222	0.06568880010977264
protein_1622	     1	1.007947	0.0000000000000000	A    	0.2649532787260222	0.06568880010977264
protein_1623	     6	12.01078	0.0000000000000000	A    	0.339966950845074	0.4577295996474049
protein_1624	     1	1.007947	0.0000000000000000	A    	0.2649532787260222	0.06568880010977264
protein_1625	     1	1.007947	0.0000000000000000	A    	0.2649532787260222	0.06568880010977264
protein_1626	     1	1.007947	0.0000000000000000	A    	0.2649532787260222	0.06568880010977264
protein_1627	     7	14.00672	0.0000000000000000	A    	0.3249998524031035	0.7112799996555186
protein_1628	     1	1.007947	0.0000000000000000	A    	0.1069078461720523	0.06568880001765333
protein_1629	     6	12.01078	0.0000000000000000	A    	0.339966950845074	0.4577295996474049
protein_1630	     1	1.007947	0.0000000000000000	A    	0.2471353042642165	0.06568880041196259
protein_1631	     6	12.01078	0.0000000000000000	A    	0.3399669507944831	0.3598240005370534
protein_1632	     8	15.99943	0.0000000000000000	A    	0.2959921901644686	0.8786399993381852
protein_1633	     6	12.01078	0.0000000000000000	A    	0.339966950845074	0.4577295996474049
protein_1634	     1	1.007947	0.0000000000000000	A    	0.2471353042642165	0.06568880041196259
protein_1635	     6	12.01078	0.0000000000000000	A    	0.339966950845074	0.4577295996474049
protein_1636	     1	1.007947	0.0000000000000000	A    	0.2649532787260222	0.06568880010977264
protein_1637	     1	1.007947	0.0000000000000000	A    	0.2649532787260222	0.06568880010977264
protein_1638	     1	1.007947	0.0000000000000000	A    	0.2649532787260222	0.06568880010977264
protein_1639	     8	15.99943	0.0000000000000000	A    	0.3066473387458142	0.8803136010405576
protein_1640	     1	1.007947	0.0000000000000000	A    	0	0
protein_1641	     7	14.00672	0.0000000000000000	A    	0.3249998524031035	0.7112799996555186
protein_1642	     1	1.007947	0.0000000000000000	A    	0.1069078461720523	0.06568880001765333
protein_1643	     6	12.01078	0.0000000000000000	A    	0.339966950845074	0.4577295996474049
protein_1644	     1	1.007947	0.0000000000000000	A    	0.2471353042642165	0.06568880041196259
protein_1645	     6	12.01078	0.0000000000000000	A    	0.3399669507944831	0.3598240005370534
protein_1646	     8	15.99943	0.0000000000000000	A    	0.2959921901644686	0.8786399993381852
protein_1647	     6	12.01078	0.0000000000000000	A    	0.339966950845074	0.4577295996474049
protein_1648	     1	1.007947	0.0000000000000000	A    	0.2471353042642165	0.06568880041196259
protein_1649	     6	12.01078	0.0000000000000000	A    	0.339966950845074	0.4577295996474049
protein_1650	     1	1.007947	0.0000000000000000	A    	0.2649532787260222	0.06568880010977264
protein_1651	     1	1.007947	0.0000000000000000	A    	0.2649532787260222	0.06568880010977264
protein_1652	     1	1.007947	0.0000000000000000	A    	0.2649532787260222	0.06568880010977264
protein_1653	     8	15.99943	0.0000000000000000	A    	0.3066473387458142	0.8803136010405576
protein_1654	     1	1.007947	0.0000000000000000	A    	0	0
protein_1655	     7	14.00672	0.0000000000000000	A    	0.3249998524031035	0.7112799996555186
protein_1656	     1	1.007947	0.0000000000000000	A    	0.1069078461720523	0.06568880001765333
protein_1657	     6	12.01078	0.0000000000000000	A    	0.339966950845074	0.4577295996474049
protein_1658	     1	1.007947	0.0000000000000000	A    	0.2471353042642165	0.06568880041196259
protein_1659	     6	12.01078	0.0000000000000000	A    	0.3399669507944831	0.3598240005370534
protein_1660	     8	15.99943	0.0000000000000000	A    	0.2959921901644686	0.8786399993381852
protein_1661	     6	12.01078	0.0000000000000000	A    	0.339966950845074	0.4577295996474049
protein_1662	     1	1.007947	0.0000000000000000	A    	0.2649532787260222	0.06568880010977264
protein_1663	     6	12.01078	0.0000000000000000	A    	0.339966950845074	0.4577295996474049
protein_1664	     1	1.007947	0.0000000000000000	A    	0.2649532787260222	0.06568880010977264
protein_1665	     1	1.007947	0.0000000000000000	A    	0.2649532787260222	0.06568880010977264
protein_1666	     1	1.007947	0.0000000000000000	A    	0.2649532787260222	0.06568880010977264
protein_1667	     6	12.01078	0.0000000000000000	A    	0.339966950845074	0.4577295996474049
protein_1668	     1	1.007947	0.0000000000000000	A    	0.2649532787260222	0.06568880010977264
protein_1669	     1	1.007947	0.0000000000000000	A    	0.2649532787260222	0.06568880010977264
protein_1670	     1	1.007947	0.0000000000000000	A    	0.2649532787260222	0.06568880010977264
protein_1671	     7	14.00672	0.0000000000000000	A    	0.3249998524031035	0.7112799996555186
protein_1672	     1	1.007947	0.0000000000000000	A    	0.1069078461720523	0.06568880001765333
protein_1673	     6	12.01078	0.0000000000000000	A    	0.339966950845074	0.4577295996474049
protein_1674	     1	1.007947	0.0000000000000000	A    	0.2471353042642165	0.06568880041196259
protein_1675	     6	12.01078	0.0000000000000000	A    	0.3399669507944831	0.3598240005370534
protein_1676	     8	15.99943	0.0000000000000000	A    	0.2959921901644686	0.8786399993381852
protein_1677	     6	12.01078	0.0000000000000000	A    	0.339966950845074	0.4577295996474049
protein_1678	     1	1.007947	0.0000000000000000	A    	0.2471353042642165	0.06568880041196259
protein_1679	     1	1.007947	0.0000000000000000	A    	0.2471353042642165	0.06568880041196259
protein_1680	    16	32.0655	0.0000000000000000	A    	0.3563594872561356	1.046
protein_1681	     1	1.007947	0.0000000000000000	A    	0.1069078461720523	0.06568880001765333
protein_1682	     7	14.00672	0.0000000000000000	A    	0.3249998524031035	0.7112799996555186
protein_1683	     6	12.01078	0.0000000000000000	A    	0.339966950845074	0.4577295996474049
protein_1684	     1	1.007947	0.0000000000000000	A    	0.2471353042642165	0.06568880041196259
protein_1685	     6	12.01078	0.0000000000000000	A    	0.3399669507944831	0.3598240005370534
protein_1686	     8	15.99943	0.0000000000000000	A    	0.2959921901644686	0.8786399993381852
protein_1687	     6	12.01078	0.0000000000000000	A    	0.339966950845074	0.4577295996474049
protein_1688	     1	1.007947	0.0000000000000000	A    	0.2649532787260222	0.06568880010977264
protein_1689	     1	1.007947	0.0000000000000000	A    	0.2649532787260222	0.06568880010977264
protein_1690	     6	12.01078	0.0000000000000000	A    	0.339966950845074	0.4577295996474049
protein_1691	     1	1.007947	0.0000000000000000	A    	0.2649532787260222	0.06568880010977264
protein_1692	     1	1.007947	0.0000000000000000	A    	0.2649532787260222	0.06568880010977264
protein_1693	     6	12.01078	0.0000000000000000	A    	0.339966950845074	0.4577295996474049
protein_1694	     1	1.007947	0.0000000000000000	A    	0.2471353042642165	0.06568880041196259
protein_1695	     1	1.007947	0.0000000000000000	A    	0.2471353042642165	0.06568880041196259
protein_1696	     7	14.00672	0.0000000000000000	A    	0.3249998524031035	0.7112799996555186
protein_1697	     1	1.007947	0.0000000000000000	A    	0.1069078461720523	0.06568880001765333
protein_1698	     6	12.01078	0.0000000000000000	A    	0.339966950845074	0.4577295996474049
protein_1699	     1	1.007947	0.0000000000000000	A    	0.2471353042642165	0.06568880041196259
protein_1700	     6	12.01078	0.0000000000000000	A    	0.3399669507944831	0.3598240005370534
protein_1701	     8	15.99943	0.0000000000000000	A    	0.2959921901644686	0.8786399993381852
protein_1702	     6	12.01078	0.0000000000000000	A    	0.339966950845074	0.4577295996474049
protein_1703	     1	1.007947	0.0000000000000000	A    	0.2471353042642165	0.06568880041196259
protein_1704	     6	12.01078	0.0000000000000000	A    	0.339966950845074	0.4577295996474049
protein_1705	     1	1.007947	0.0000000000000000	A    	0.2649532787260222	0.06568880010977264
protein_1706	     1	1.007947	0.0000000000000000	A    	0.2649532787260222	0.06568880010977264
protein_1707	     1	1.007947	0.0000000000000000	A    	0.2649532787260222	0.06568880010977264
protein_1708	     8	15.99943	0.0000000000000000	A    	0.3066473387458142	0.8803136010405576
protein_1709	     1	1.007947	0.0000000000000000	A    	0	0
protein_1710	     7	14.00672	0.0000000000000000	A    	0.3249998524031035	0.7112799996555186
protein_1711	     1	1.007947	0.0000000000000000	A    	0.1069078461720523	0.06568880001765333
protein_1712	     6	12.01078	0.0000000000000000	A    	0.339966950845074	0.4577295996474049
protein_1713	     1	1.007947	0.0000000000000000	A    	0.2471353042642165	0.06568880041196259
protein_1714	     6	12.01078	0.0000000000000000	A    	0.3399669507944831	0.3598240005370534
protein_1715	     8	15.99943	0.0000000000000000	A    	0.2959921901644686	0.8786399993381852
protein_1716	     6	12.01078	0.0000000000000000	A    	0.339966950845074	0.4577295996474049
protein_1717	     1	1.007947	0.0000000000000000	A    	0.2471353042642165	0.06568880041196259
protein_1718	     1	1.007947	0.0000000000000000	A    	0.2471353042642165	0.06568880041196259
protein_1719	     8	15.99943	0.0000000000000000	A    	0.3066473387458142	0.8803136010405576
protein_1720	     1	1.007947	0.0000000000000000	A    	0	0
protein_1721	     7	14.00672	0.0000000000000000	A    	0.3249998524031035	0.7112799996555186
protein_1722	     1	1.007947	0.0000000000000000	A    	0.1069078461720523	0.06568880001765333
protein_1723	     6	12.01078	0.0000000000000000	A    	0.339966950845074	0.4577295996474049
protein_1724	     1	1.007947	0.0000000000000000	A    	0.2471353042642165	0.06568880041196259
protein_1725	     6	12.01078	0.0000000000000000	A    	0.3399669507944831	0.3598240005370534
protein_1726	     8	15.99943	0.0000000000000000	A    	0.2959921901644686	0.8786399993381852
protein_1727	     6	12.01078	0.0000000000000000	A    	0.339966950845074	0.4577295996474049
protein_1728	     1	1.007947	0.0000000000000000	A    	0.2649532787260222	0.06568880010977264
protein_1729	     1	1.007947	0.0000000000000000	A    	0.2649532787260222	0.06568880010977264
protein_1730	     6	12.01078	0.0000000000000000	A    	0.339966950845074	0.4577295996474049
protein_1731	     1	1.007947	0.0000000000000000	A    	0.2649532787260222	0.06568880010977264
protein_1732	     1	1.007947	0.0000000000000000	A    	0.2649532787260222	0.06568880010977264
protein_1733	     6	12.01078	0.0000000000000000	A    	0.339966950845074	0.4577295996474049
protein_1734	     1	1.007947	0.0000000000000000	A    	0.2649532787260222	0.06568880010977264
protein_1735	     1	1.007947	0.0000000000000000	A    	0.2649532787260222	0.06568880010977264
protein_1736	     6	12.01078	0.0000000000000000	A    	0.339966950845074	0.4577295996474049
protein_1737	     1	1.007947	0.0000000000000000	A    	0.1959977179007358	0.06568880026244604
protein_1738	     1	1.007947	0.0000000000000000	A    	0.1959977179007358	0.06568880026244604
protein_1739	     7	14.00672	0.0000000000000000	A    	0.3249998524031035	0.7112799996555186
protein_1740	     1	1.007947	0.0000000000000000	A    	0.1069078461720523	0.06568880001765333
protein_1741	     1	1.007947	0.0000000000000000	A    	0.1069078461720523	0.06568880001765333
protein_1742	     1	1.007947	0.0000000000000000	A    	0.1069078461720523	0.06568880001765333
protein_1743	     8	15.99943	0.0000000000000000	A    	0.2959921901644686	0.8786399993381852
pTyr_peptide_0	     7	14.00672	0.0000000000000000	A    	0.3206876023663901	0.7016212989374017
pTyr_peptide_1	     6	12.01078	0.0000000000000000	A    	0.337953176162662	0.4553891161106184
pTyr_peptide_2	     6	12.01078	0.0000000000000000	A    	0.3480646886945065	0.3635030558377792
pTyr_peptide_3	     8	15.99943	0.0000000000000000	A    	0.3039812205065809	0.8795023257036865
pTyr_peptide_4	     6	12.01078	0.0000000000000000	A    	0.337953176162662	0.4553891161106184
pTyr_peptide_5	     6	12.01078	0.0000000000000000	A    	0.3480646886945065	0.3635030558377792
pTyr_peptide_6	     8	15.99943	0.0000000000000000	A    	0.3039812205065809	0.8795023257036865
pTyr_peptide_7	     8	15.99943	0.0000000000000000	A    	0.3039812205065809	0.8795023257036865
pTyr_peptide_8	     7	14.00672	0.0000000000000000	A    	0.3206876023663901	0.7016212989374017
pTyr_peptide_9	     6	12.01078	0.0000000000000000	A    	0.337953176162662	0.4553891161106184
pTyr_peptide_10	     6	12.01078	0.0000000000000000	A    	0.3480646886945065	0.3635030558377792
pTyr_peptide_11	     8	15.99943	0.0000000000000000	A    	0.3039812205065809	0.8795023257036865
pTyr_peptide_12	     6	12.01078	0.0000000000000000	A    	0.337953176162662	0.4553891161106184
pTyr_peptide_13	     6	12.01078	0.0000000000000000	A    	0.3480646886945065	0.3635030558377792
pTyr_peptide_14	     6	12.01078	0.0000000000000000	A    	0.3480646886945065	0.3635030558377792
pTyr_peptide_15	     7	14.00672	0.0000000000000000	A    	0.3206876023663901	0.7016212989374017
pTyr_peptide_16	     6	12.01078	0.0000000000000000	A    	0.3480646886945065	0.3635030558377792
pTyr_peptide_17	     7	14.00672	0.0000000000000000	A    	0.3206876023663901	0.7016212989374017
pTyr_peptide_18	     7	14.00672	0.0000000000000000	A    	0.3206876023663901	0.7016212989374017
pTyr_peptide_19	     6	12.01078	0.0000000000000000	A    	0.337953176162662	0.4553891161106184
pTyr_peptide_20	     6	12.01078	0.0000000000000000	A    	0.3480646886945065	0.3635030558377792
pTyr_peptide_21	     8	15.99943	0.0000000000000000	A    	0.3039812205065809	0.8795023257036865
pTyr_peptide_22	     6	12.01078	0.0000000000000000	A    	0.337953176162662	0.4553891161106184
pTyr_peptide_23	     6	12.01078	0.0000000000000000	A    	0.337953176162662	0.4553891161106184
pTyr_peptide_24	     6	12.01078	0.0000000000000000	A    	0.3480646886945065	0.3635030558377792
pTyr_peptide_25	     8	15.99943	0.0000000000000000	A    	0.3039812205065809	0.8795023257036865
pTyr_peptide_26	     8	15.99943	0.0000000000000000	A    	0.3039812205065809	0.8795023257036865
pTyr_peptide_27	     7	14.00672	0.0000000000000000	A    	0.3206876023663901	0.7016212989374017
pTyr_peptide_28	     6	12.01078	0.0000000000000000	A    	0.337953176162662	0.4553891161106184
pTyr_peptide_29	     6	12.01078	0.0000000000000000	A    	0.3480646886945065	0.3635030558377792
pTyr_peptide_30	     8	15.99943	0.0000000000000000	A    	0.3039812205065809	0.8795023257036865
pTyr_peptide_31	     6	12.01078	0.0000000000000000	A    	0.337953176162662	0.4553891161106184
pTyr_peptide_32	     6	12.01078	0.0000000000000000	A    	0.337953176162662	0.4553891161106184
pTyr_peptide_33	     6	12.01078	0.0000000000000000	A    	0.337953176162662	0.4553891161106184
pTyr_peptide_34	     7	14.00672	0.0000000000000000	A    	0.3206876023663901	0.7016212989374017
pTyr_peptide_35	     6	12.01078	0.0000000000000000	A    	0.337953176162662	0.4553891161106184
pTyr_peptide_36	     6	12.01078	0.0000000000000000	A    	0.3480646886945065	0.3635030558377792
pTyr_peptide_37	     8	15.99943	0.0000000000000000	A    	0.3039812205065809	0.8795023257036865
pTyr_peptide_38	     6	12.01078	0.0000000000000000	A    	0.337953176162662	0.4553891161106184
pTyr_peptide_39	     6	12.01078	0.0000000000000000	A    	0.337953176162662	0.4553891161106184
pTyr_peptide_40	     6	12.01078	0.0000000000000000	A    	0.337953176162662	0.4553891161106184
pTyr_peptide_41	     6	12.01078	0.0000000000000000	A    	0.337953176162662	0.4553891161106184
pTyr_peptide_42	     7	14.00672	0.0000000000000000	A    	0.3206876023663901	0.7016212989374017
pTyr_peptide_43	     6	12.01078	0.0000000000000000	A    	0.337953176162662	0.4553891161106184
pTyr_peptide_44	     6	12.01078	0.0000000000000000	A    	0.337953176162662	0.4553891161106184
pTyr_peptide_45	     8	15.99943	0.0000000000000000	A    	0.2997159987248637	0.8764372596155737
pTyr_peptide_46	     6	12.01078	0.0000000000000000	A    	0.337953176162662	0.4553891161106184
pTyr_peptide_47	     6	12.01078	0.0000000000000000	A    	0.337953176162662	0.4553891161106184
pTyr_peptide_48	     6	12.01078	0.0000000000000000	A    	0.337953176162662	0.4553891161106184
pTyr_peptide_49	     6	12.01078	0.0000000000000000	A    	0.337953176162662	0.4553891161106184
pTyr_peptide_50	     6	12.01078	0.0000000000000000	A    	0.337953176162662	0.4553891161106184
pTyr_peptide_51	     6	12.01078	0.0000000000000000	A    	0.337953176162662	0.4553891161106184
pTyr_peptide_52	     6	12.01078	0.0000000000000000	A    	0.337953176162662	0.4553891161106184
pTyr_peptide_53	     8	15.99943	0.0000000000000000	A    	0.3025106490435313	0.7048581468486769
pTyr_peptide_54	    15	30.9737622	0.0000000000000000	A    	0.3741774616189425	0.8368000000000001
pTyr_peptide_55	     8	15.99943	0.0000000000000000	A    	0.3039812205065809	0.8795023257036865
pTyr_peptide_56	     8	15.99943	0.0000000000000000	A    	0.3039812205065809	0.8795023257036865
pTyr_peptide_57	     8	15.99943	0.0000000000000000	A    	0.3039812205065809	0.8795023257036865
pTyr_peptide_58	     7	14.00672	0.0000000000000000	A    	0.3206876023663901	0.7016212989374017
pTyr_peptide_59	     6	12.01078	0.0000000000000000	A    	0.337953176162662	0.4553891161106184
pTyr_peptide_60	     6	12.01078	0.0000000000000000	A    	0.3480646886945065	0.3635030558377792
pTyr_peptide_61	     8	15.99943	0.0000000000000000	A    	0.3039812205065809	0.8795023257036865
pTyr_peptide_62	     6	12.01078	0.0000000000000000	A    	0.337953176162662	0.4553891161106184
pTyr_peptide_63	     6	12.01078	0.0000000000000000	A    	0.337953176162662	0.4553891161106184
pTyr_peptide_64	     6	12.01078	0.0000000000000000	A    	0.3480646886945065	0.3635030558377792
pTyr_peptide_65	     8	15.99943	0.0000000000000000	A    	0.3039812205065809	0.8795023257036865
pTyr_peptide_66	     8	15.99943	0.0000000000000000	A    	0.3039812205065809	0.8795023257036865
pTyr_peptide_67	     7	14.00672	0.0000000000000000	A    	0.3206876023663901	0.7016212989374017
pTyr_peptide_68	     6	12.01078	0.0000000000000000	A    	0.337953176162662	0.4553891161106184
pTyr_peptide_69	     6	12.01078	0.0000000000000000	A    	0.3480646886945065	0.3635030558377792
pTyr_peptide_70	     8	15.99943	0.0000000000000000	A    	0.3039812205065809	0.8795023257036865
pTyr_peptide_71	     6	12.01078	0.0000000000000000	A    	0.337953176162662	0.4553891161106184
pTyr_peptide_72	     6	12.01078	0.0000000000000000	A    	0.337953176162662	0.4553891161106184
pTyr_peptide_73	     6	12.01078	0.0000000000000000	A    	0.3480646886945065	0.3635030558377792
pTyr_peptide_74	     7	14.00672	0.0000000000000000	A    	0.3206876023663901	0.7016212989374017
pTyr_peptide_75	     8	15.99943	0.0000000000000000	A    	0.3039812205065809	0.8795023257036865
pTyr_peptide_76	     7	14.00672	0.0000000000000000	A    	0.3206876023663901	0.7016212989374017
pTyr_peptide_77	     6	12.01078	0.0000000000000000	A    	0.337953176162662	0.4553891161106184
pTyr_peptide_78	     6	12.01078	0.0000000000000000	A    	0.3480646886945065	0.3635030558377792
pTyr_peptide_79	     8	15.99943	0.0000000000000000	A    	0.3039812205065809	0.8795023257036865
pTyr_peptide_80	     6	12.01078	0.0000000000000000	A    	0.337953176162662	0.4553891161106184
pTyr_peptide_81	     6	12.01078	0.0000000000000000	A    	0.3480646886945065	0.3635030558377792
pTyr_peptide_82	     6	12.01078	0.0000000000000000	A    	0.3480646886945065	0.3635030558377792
pTyr_peptide_83	     6	12.01078	0.0000000000000000	A    	0.3480646886945065	0.3635030558377792
pTyr_peptide_84	     6	12.01078	0.0000000000000000	A    	0.3480646886945065	0.3635030558377792
pTyr_peptide_85	     6	12.01078	0.0000000000000000	A    	0.3480646886945065	0.3635030558377792
pTyr_peptide_86	     7	14.00672	0.0000000000000000	A    	0.3206876023663901	0.7016212989374017
pTyr_peptide_87	     6	12.01078	0.0000000000000000	A    	0.3480646886945065	0.3635030558377792
pTyr_peptide_88	     6	12.01078	0.0000000000000000	A    	0.3480646886945065	0.3635030558377792
pTyr_peptide_89	     6	12.01078	0.0000000000000000	A    	0.3480646886945065	0.3635030558377792
pTyr_peptide_90	     7	14.00672	0.0000000000000000	A    	0.3206876023663901	0.7016212989374017
pTyr_peptide_91	     6	12.01078	0.0000000000000000	A    	0.337953176162662	0.4553891161106184
pTyr_peptide_92	     6	12.01078	0.0000000000000000	A    	0.3480646886945065	0.3635030558377792
pTyr_peptide_93	     8	15.99943	0.0000000000000000	A    	0.3039812205065809	0.8795023257036865
pTyr_peptide_94	     7	14.00672	0.0000000000000000	A    	0.3206876023663901	0.7016212989374017
pTyr_peptide_95	     6	12.01078	0.0000000000000000	A    	0.337953176162662	0.4553891161106184
pTyr_peptide_96	     6	12.01078	0.0000000000000000	A    	0.3480646886945065	0.3635030558377792
pTyr_peptide_97	     8	15.99943	0.0000000000000000	A    	0.3039812205065809	0.8795023257036865
pTyr_peptide_98	     6	12.01078	0.0000000000000000	A    	0.337953176162662	0.4553891161106184
pTyr_peptide_99	     6	12.01078	0.0000000000000000	A    	0.3480646886945065	0.3635030558377792
pTyr_peptide_100	     6	12.01078	0.0000000000000000	A    	0.3480646886945065	0.3635030558377792
pTyr_peptide_101	     6	12.01078	0.0000000000000000	A    	0.3480646886945065	0.3635030558377792
pTyr_peptide_102	     6	12.01078	0.0000000000000000	A    	0.3480646886945065	0.3635030558377792
pTyr_peptide_103	     6	12.01078	0.0000000000000000	A    	0.3480646886945065	0.3635030558377792
pTyr_peptide_104	     7	14.00672	0.0000000000000000	A    	0.3206876023663901	0.7016212989374017
pTyr_peptide_105	     6	12.01078	0.0000000000000000	A    	0.3480646886945065	0.3635030558377792
pTyr_peptide_106	     6	12.01078	0.0000000000000000	A    	0.3480646886945065	0.3635030558377792
pTyr_peptide_107	     6	12.01078	0.0000000000000000	A    	0.3480646886945065	0.3635030558377792
pTyr_peptide_108	     6	12.01078	0.0000000000000000	A    	0.3480646886945065	0.3635030558377792
pTyr_peptide_109	     8	15.99943	0.0000000000000000	A    	0.3039812205065809	0.8795023257036865
pTyr_peptide_110	     6	12.01078	0.0000000000000000	A    	0.337953176162662	0.4553891161106184
pTyr_peptide_111	     7	14.00672	0.0000000000000000	A    	0.3206876023663901	0.7016212989374017
pTyr_peptide_112	     6	12.01078	0.0000000000000000	A    	0.337953176162662	0.4553891161106184
pTyr_peptide_113	     1	1.007947	0.0000000000000000	A    	0.1103427677297317	0.05895596890015097
pTyr_peptide_114	     1	1.007947	0.0000000000000000	A    	0.2583225710839196	0.068656285380106
pTyr_peptide_115	     1	1.007947	0.0000000000000000	A    	0.2644543413268124	0.06602135607582665
pTyr_peptide_116	     1	1.007947	0.0000000000000000	A    	0.2644543413268124	0.06602135607582665
pTyr_peptide_117	     1	1.007947	0.0000000000000000	A    	0.1103427677297317	0.05895596890015097
pTyr_peptide_118	     1	1.007947	0.0000000000000000	A    	0.2583225710839196	0.068656285380106
pTyr_peptide_119	     1	1.007947	0.0000000000000000	A    	0.2644543413268124	0.06602135607582665
pTyr_peptide_120	     1	1.007947	0.0000000000000000	A    	0.2644543413268124	0.06602135607582665
pTyr_peptide_121	     1	1.007947	0.0000000000000000	A    	0.2453626527729973	0.05483968129296432
pTyr_peptide_122	     1	1.007947	0.0000000000000000	A    	0.2441922754112159	0.06191251006677376
pTyr_peptide_123	     1	1.007947	0.0000000000000000	A    	0.1103427677297317	0.05895596890015097
pTyr_peptide_124	     1	1.007947	0.0000000000000000	A    	0.1103427677297317	0.05895596890015097
pTyr_peptide_125	     1	1.007947	0.0000000000000000	A    	0.2583225710839196	0.068656285380106
pTyr_peptide_126	     1	1.007947	0.0000000000000000	A    	0.2644543413268124	0.06602135607582665
pTyr_peptide_127	     1	1.007947	0.0000000000000000	A    	0.2644543413268124	0.06602135607582665
pTyr_peptide_128	     1	1.007947	0.0000000000000000	A    	0.2644543413268124	0.06602135607582665
pTyr_peptide_129	     1	1.007947	0.0000000000000000	A    	0.2644543413268124	0.06602135607582665
pTyr_peptide_130	     1	1.007947	0.0000000000000000	A    	0.2583225710839196	0.068656285380106
pTyr_peptide_131	     1	1.007947	0.0000000000000000	A    	0.2644543413268124	0.06602135607582665
pTyr_peptide_132	     1	1.007947	0.0000000000000000	A    	0.2644543413268124	0.06602135607582665
pTyr_peptide_133	     1	1.007947	0.0000000000000000	A    	0.2644543413268124	0.06602135607582665
pTyr_peptide_134	     1	1.007947	0.0000000000000000	A    	0.2644543413268124	0.06602135607582665
pTyr_peptide_135	     1	1.007947	0.0000000000000000	A    	0.2583225710839196	0.068656285380106
pTyr_peptide_136	     1	1.007947	0.0000000000000000	A    	0.2583225710839196	0.068656285380106
pTyr_peptide_137	     1	1.007947	0.0000000000000000	A    	0.1103427677297317	0.05895596890015097
pTyr_peptide_138	     1	1.007947	0.0000000000000000	A    	0.2583225710839196	0.068656285380106
pTyr_peptide_139	     1	1.007947	0.0000000000000000	A    	0.2644543413268124	0.06602135607582665
pTyr_peptide_140	     1	1.007947	0.0000000000000000	A    	0.2644543413268124	0.06602135607582665
pTyr_peptide_141	     1	1.007947	0.0000000000000000	A    	0.2644543413268124	0.06602135607582665
pTyr_peptide_142	     1	1.007947	0.0000000000000000	A    	0.2644543413268124	0.06602135607582665
pTyr_peptide_143	     1	1.007947	0.0000000000000000	A    	0.2644543413268124	0.06602135607582665
pTyr_peptide_144	     1	1.007947	0.0000000000000000	A    	0.2644543413268124	0.06602135607582665
pTyr_peptide_145	     1	1.007947	0.0000000000000000	A    	0.2644543413268124	0.06602135607582665
pTyr_peptide_146	     1	1.007947	0.0000000000000000	A    	0.2644543413268124	0.06602135607582665
pTyr_peptide_147	     1	1.007947	0.0000000000000000	A    	0.2644543413268124	0.06602135607582665
pTyr_peptide_148	     1	1.007947	0.0000000000000000	A    	0.1103427677297317	0.05895596890015097
pTyr_peptide_149	     1	1.007947	0.0000000000000000	A    	0.2583225710839196	0.068656285380106
pTyr_peptide_150	     1	1.007947	0.0000000000000000	A    	0.2293173300493233	0.06568879999999999
pTyr_peptide_151	     1	1.007947	0.0000000000000000	A    	0.0534539230883669	5.157198260534728e-05
pTyr_peptide_152	     1	1.007947	0.0000000000000000	A    	0.2644543413268124	0.06602135607582665
pTyr_peptide_153	     1	1.007947	0.0000000000000000	A    	0.2644543413268124	0.06602135607582665
pTyr_peptide_154	     1	1.007947	0.0000000000000000	A    	0.2644543413268124	0.06602135607582665
pTyr_peptide_155	     1	1.007947	0.0000000000000000	A    	0.2644543413268124	0.06602135607582665
pTyr_peptide_156	     1	1.007947	0.0000000000000000	A    	0.2644543413268124	0.06602135607582665
pTyr_peptide_157	     1	1.007947	0.0000000000000000	A    	0.2644543413268124	0.06602135607582665
pTyr_peptide_158	     1	1.007947	0.0000000000000000	A    	0.2644543413268124	0.06602135607582665
pTyr_peptide_159	     1	1.007947	0.0000000000000000	A    	0.2644543413268124	0.06602135607582665
pTyr_peptide_160	     1	1.007947	0.0000000000000000	A    	0.2644543413268124	0.06602135607582665
pTyr_peptide_161	     1	1.007947	0.0000000000000000	A    	0.2644543413268124	0.06602135607582665
pTyr_peptide_162	     1	1.007947	0.0000000000000000	A    	0.2644543413268124	0.06602135607582665
pTyr_peptide_163	     1	1.007947	0.0000000000000000	A    	0.2583225710839196	0.068656285380106
pTyr_peptide_164	     1	1.007947	0.0000000000000000	A    	0.1103427677297317	0.05895596890015097
pTyr_peptide_165	     1	1.007947	0.0000000000000000	A    	0.2583225710839196	0.068656285380106
pTyr_peptide_166	     1	1.007947	0.0000000000000000	A    	0.2644543413268124	0.06602135607582665
pTyr_peptide_167	     1	1.007947	0.0000000000000000	A    	0.2644543413268124	0.06602135607582665
pTyr_peptide_168	     1	1.007947	0.0000000000000000	A    	0.2644543413268124	0.06602135607582665
pTyr_peptide_169	     1	1.007947	0.0000000000000000	A    	0.2644543413268124	0.06602135607582665
pTyr_peptide_170	     1	1.007947	0.0000000000000000	A    	0.1103427677297317	0.05895596890015097
pTyr_peptide_171	     1	1.007947	0.0000000000000000	A    	0.2583225710839196	0.068656285380106
pTyr_peptide_172	     1	1.007947	0.0000000000000000	A    	0.2644543413268124	0.06602135607582665
pTyr_peptide_173	     1	1.007947	0.0000000000000000	A    	0.2644543413268124	0.06602135607582665
pTyr_peptide_174	     1	1.007947	0.0000000000000000	A    	0.2644543413268124	0.06602135607582665
pTyr_peptide_175	     1	1.007947	0.0000000000000000	A    	0.2644543413268124	0.06602135607582665
pTyr_peptide_176	     1	1.007947	0.0000000000000000	A    	0.1103427677297317	0.05895596890015097
pTyr_peptide_177	     1	1.007947	0.0000000000000000	A    	0.1103427677297317	0.05895596890015097
pTyr_peptide_178	     1	1.007947	0.0000000000000000	A    	0.1103427677297317	0.05895596890015097
pTyr_peptide_179	     1	1.007947	0.0000000000000000	A    	0.2583225710839196	0.068656285380106
pTyr_peptide_180	     1	1.007947	0.0000000000000000	A    	0.2644543413268124	0.06602135607582665
pTyr_peptide_181	     1	1.007947	0.0000000000000000	A    	0.2644543413268124	0.06602135607582665
pTyr_peptide_182	     1	1.007947	0.0000000000000000	A    	0.2453626527729973	0.05483968129296432
pTyr_peptide_183	     1	1.007947	0.0000000000000000	A    	0.2572581535063279	0.06531785996356952
pTyr_peptide_184	     1	1.007947	0.0000000000000000	A    	0.1103427677297317	0.05895596890015097
pTyr_peptide_185	     1	1.007947	0.0000000000000000	A    	0.2572581535063279	0.06531785996356952
pTyr_peptide_186	     1	1.007947	0.0000000000000000	A    	0.2572581535063279	0.06531785996356952
pTyr_peptide_187	     1	1.007947	0.0000000000000000	A    	0.2572581535063279	0.06531785996356952
pTyr_peptide_188	     1	1.007947	0.0000000000000000	A    	0.1103427677297317	0.05895596890015097
pTyr_peptide_189	     1	1.007947	0.0000000000000000	A    	0.2583225710839196	0.068656285380106
pTyr_peptide_190	     1	1.007947	0.0000000000000000	A    	0.2583225710839196	0.068656285380106
pTyr_peptide_191	     1	1.007947	0.0000000000000000	A    	0.1103427677297317	0.05895596890015097
pTyr_peptide_192	     1	1.007947	0.0000000000000000	A    	0.2583225710839196	0.068656285380106
pTyr_peptide_193	     1	1.007947	0.0000000000000000	A    	0.2644543413268124	0.06602135607582665
pTyr_peptide_194	     1	1.007947	0.0000000000000000	A    	0.2644543413268124	0.06602135607582665
pTyr_peptide_195	     1	1.007947	0.0000000000000000	A    	0.2453626527729973	0.05483968129296432
pTyr_peptide_196	     1	1.007947	0.0000000000000000	A    	0.2572581535063279	0.06531785996356952
pTyr_peptide_197	     1	1.007947	0.0000000000000000	A    	0.1103427677297317	0.05895596890015097
pTyr_peptide_198	     1	1.007947	0.0000000000000000	A    	0.2572581535063279	0.06531785996356952
pTyr_peptide_199	     1	1.007947	0.0000000000000000	A    	0.2572581535063279	0.06531785996356952
pTyr_peptide_200	     1	1.007947	0.0000000000000000	A    	0.2572581535063279	0.06531785996356952
pTyr_peptide_201	     1	1.007947	0.0000000000000000	A    	0.2644543413268124	0.06602135607582665
pTyr_peptide_202	     1	1.007947	0.0000000000000000	A    	0.2644543413268124	0.06602135607582665
pTyr_peptide_203	     1	1.007947	0.0000000000000000	A    	0.2644543413268124	0.06602135607582665
pTyr_peptide_204	     1	1.007947	0.0000000000000000	A    	0.1103427677297317	0.05895596890015097
pTyr_peptide_205	     1	1.007947	0.0000000000000000	A    	0.2583225710839196	0.068656285380106
pTyr_peptide_206	     1	1.007947	0.0000000000000000	A    	0.2583225710839196	0.068656285380106
pTyr_peptide_207	     1	1.007947	0.0000000000000000	A    	0.2583225710839196	0.068656285380106
SOL_0      	     8	15.99943	0.0000000000000000	A    	0.31507	0.6363864000000001
SOL_1      	     1	1.007947	0.0000000000000000	A    	0.09999999999999999	0
SOL_2      	     1	1.007947	0.0000000000000000	A    	0.09999999999999999	0
NA_0       	    11	22.989769282	0.0000000000000000	A    	0.2439280690268249	0.3658460312

