[ moleculetype ]
pTyr_peptide	         3

[ atoms ]
;index, atom type, resnum, resname, name, cgnr, charge, mass
     1 pTyr_peptide_0       1 LIG      N          1     -0.544791155217     14.006720000000
     2 pTyr_peptide_1       1 LIG      CA         1      0.081050119640     12.010780000000
     3 pTyr_peptide_2       1 LIG      C          1      0.668830103519     12.010780000000
     4 pTyr_peptide_3       1 LIG      O          1     -0.648986392377     15.999430000000
     5 pTyr_peptide_4       1 LIG      CB         1     -0.210380666612     12.010780000000
     6 pTyr_peptide_5       1 LIG      CG         1      0.917172438743     12.010780000000
     7 pTyr_peptide_6       1 LIG      OD1        1     -0.833531074880     15.999430000000
     8 pTyr_peptide_7       1 LIG      OD2        1     -0.833531074880     15.999430000000
     9 pTyr_peptide_8       1 LIG      N          1     -0.553788237927     14.006720000000
    10 pTyr_peptide_9       1 LIG      CA         1      0.025785231309     12.010780000000
    11 pTyr_peptide_10       1 LIG      C          1      0.647796816470     12.010780000000
    12 pTyr_peptide_11       1 LIG      O          1     -0.610606067536     15.999430000000
    13 pTyr_peptide_12       1 LIG      CB         1     -0.109615401087     12.010780000000
    14 pTyr_peptide_13       1 LIG      CG         1      0.283966816308     12.010780000000
    15 pTyr_peptide_14       1 LIG      CD2        1     -0.246401541589     12.010780000000
    16 pTyr_peptide_15       1 LIG      ND1        1     -0.660556309579     14.006720000000
    17 pTyr_peptide_16       1 LIG      CE1        1      0.393014437797     12.010780000000
    18 pTyr_peptide_17       1 LIG      NE2        1     -0.325970881341     14.006720000000
    19 pTyr_peptide_18       1 LIG      N          1     -0.537613146661     14.006720000000
    20 pTyr_peptide_19       1 LIG      CA         1      0.047164510282     12.010780000000
    21 pTyr_peptide_20       1 LIG      C          1      0.661852604987     12.010780000000
    22 pTyr_peptide_21       1 LIG      O          1     -0.621798091290     15.999430000000
    23 pTyr_peptide_22       1 LIG      CB         1     -0.075082638023     12.010780000000
    24 pTyr_peptide_23       1 LIG      CG         1     -0.210201882480     12.010780000000
    25 pTyr_peptide_24       1 LIG      CD         1      0.917124516608     12.010780000000
    26 pTyr_peptide_25       1 LIG      OE1        1     -0.834927134870     15.999430000000
    27 pTyr_peptide_26       1 LIG      OE2        1     -0.834927134870     15.999430000000
    28 pTyr_peptide_27       1 LIG      N          1     -0.471957229732     14.006720000000
    29 pTyr_peptide_28       1 LIG      CA         1      0.042016937675     12.010780000000
    30 pTyr_peptide_29       1 LIG      C          1      0.651730901839     12.010780000000
    31 pTyr_peptide_30       1 LIG      O          1     -0.597607009767     15.999430000000
    32 pTyr_peptide_31       1 LIG      CB         1     -0.092587136386     12.010780000000
    33 pTyr_peptide_32       1 LIG      CG         1     -0.095842369554     12.010780000000
    34 pTyr_peptide_33       1 LIG      CD         1      0.090494676771     12.010780000000
    35 pTyr_peptide_34       1 LIG      N          1     -0.568791919110     14.006720000000
    36 pTyr_peptide_35       1 LIG      CA         1      0.037317305150     12.010780000000
    37 pTyr_peptide_36       1 LIG      C          1      0.645945496203     12.010780000000
    38 pTyr_peptide_37       1 LIG      O          1     -0.614815705178     15.999430000000
    39 pTyr_peptide_38       1 LIG      CB         1     -0.078982651887     12.010780000000
    40 pTyr_peptide_39       1 LIG      CG1        1     -0.088792943118     12.010780000000
    41 pTyr_peptide_40       1 LIG      CG2        1     -0.100244783519     12.010780000000
    42 pTyr_peptide_41       1 LIG      CD1        1     -0.096191950796     12.010780000000
    43 pTyr_peptide_42       1 LIG      N          1     -0.563896589635     14.006720000000
    44 pTyr_peptide_43       1 LIG      CA         1      0.090373992266     12.010780000000
    45 pTyr_peptide_44       1 LIG      C          1      0.361192382218     12.010780000000
    46 pTyr_peptide_45       1 LIG      O          1     -0.603741877435     15.999430000000
    47 pTyr_peptide_46       1 LIG      CB         1     -0.079080440758     12.010780000000
    48 pTyr_peptide_47       1 LIG      CG         1     -0.067772828696     12.010780000000
    49 pTyr_peptide_48       1 LIG      CD1        1     -0.063148178814     12.010780000000
    50 pTyr_peptide_49       1 LIG      CD2        1     -0.063148178814     12.010780000000
    51 pTyr_peptide_50       1 LIG      CE1        1     -0.065327659903     12.010780000000
    52 pTyr_peptide_51       1 LIG      CE2        1     -0.065327659903     12.010780000000
    53 pTyr_peptide_52       1 LIG      CZ         1      0.209045863988     12.010780000000
    54 pTyr_peptide_53       1 LIG      OH         1     -0.532116167901     15.999430000000
    55 pTyr_peptide_54       1 LIG      P          1      1.358351237418     30.973762200000
    56 pTyr_peptide_55       1 LIG      O1P        1     -0.931354337094     15.999430000000
    57 pTyr_peptide_56       1 LIG      O2P        1     -0.931354337094     15.999430000000
    58 pTyr_peptide_57       1 LIG      O3P        1     -0.931354337094     15.999430000000
    59 pTyr_peptide_58       1 LIG      N          1     -0.811334603188     14.006720000000
    60 pTyr_peptide_59       1 LIG      CA         1      0.112494065704     12.010780000000
    61 pTyr_peptide_60       1 LIG      C          1      0.679941362979     12.010780000000
    62 pTyr_peptide_61       1 LIG      O          1     -0.618797831891     15.999430000000
    63 pTyr_peptide_62       1 LIG      CB         1     -0.058744483350     12.010780000000
    64 pTyr_peptide_63       1 LIG      CG         1     -0.195780970810     12.010780000000
    65 pTyr_peptide_64       1 LIG      CD         1      0.917160875442     12.010780000000
    66 pTyr_peptide_65       1 LIG      OE1        1     -0.838275008557     15.999430000000
    67 pTyr_peptide_66       1 LIG      OE2        1     -0.838275008557     15.999430000000
    68 pTyr_peptide_67       1 LIG      N          1     -0.558676832078     14.006720000000
    69 pTyr_peptide_68       1 LIG      CA         1      0.023432503732     12.010780000000
    70 pTyr_peptide_69       1 LIG      C          1      0.648058540465     12.010780000000
    71 pTyr_peptide_70       1 LIG      O          1     -0.613023989556     15.999430000000
    72 pTyr_peptide_71       1 LIG      CB         1     -0.084017471133     12.010780000000
    73 pTyr_peptide_72       1 LIG      CG         1     -0.171140708683     12.010780000000
    74 pTyr_peptide_73       1 LIG      CD         1      0.662435061576     12.010780000000
    75 pTyr_peptide_74       1 LIG      NE2        1     -0.689194791673     14.006720000000
    76 pTyr_peptide_75       1 LIG      OE1        1     -0.605293803571     15.999430000000
    77 pTyr_peptide_76       1 LIG      N          1     -0.560376756547     14.006720000000
    78 pTyr_peptide_77       1 LIG      CA         1      0.021976168545     12.010780000000
    79 pTyr_peptide_78       1 LIG      C          1      0.643408543708     12.010780000000
    80 pTyr_peptide_79       1 LIG      O          1     -0.607448094247     15.999430000000
    81 pTyr_peptide_80       1 LIG      CB         1     -0.027254634259     12.010780000000
    82 pTyr_peptide_81       1 LIG      CG         1     -0.145432837961     12.010780000000
    83 pTyr_peptide_82       1 LIG      CD1        1      0.005217588784     12.010780000000
    84 pTyr_peptide_83       1 LIG      CD2        1     -0.085297026394     12.010780000000
    85 pTyr_peptide_84       1 LIG      CE2        1      0.086829684021     12.010780000000
    86 pTyr_peptide_85       1 LIG      CE3        1     -0.079878971634     12.010780000000
    87 pTyr_peptide_86       1 LIG      NE1        1     -0.581498556493     14.006720000000
    88 pTyr_peptide_87       1 LIG      CZ2        1     -0.155986123441     12.010780000000
    89 pTyr_peptide_88       1 LIG      CZ3        1     -0.164298900125     12.010780000000
    90 pTyr_peptide_89       1 LIG      CH2        1     -0.115010940192     12.010780000000
    91 pTyr_peptide_90       1 LIG      N          1     -0.553739421723     14.006720000000
    92 pTyr_peptide_91       1 LIG      CA         1      0.022347924577     12.010780000000
    93 pTyr_peptide_92       1 LIG      C          1      0.643017894866     12.010780000000
    94 pTyr_peptide_93       1 LIG      O          1     -0.607170276998     15.999430000000
    95 pTyr_peptide_94       1 LIG      N          1     -0.560324542878     14.006720000000
    96 pTyr_peptide_95       1 LIG      CA         1      0.025984737368     12.010780000000
    97 pTyr_peptide_96       1 LIG      C          1      0.644829458835     12.010780000000
    98 pTyr_peptide_97       1 LIG      O          1     -0.613125496266     15.999430000000
    99 pTyr_peptide_98       1 LIG      CB         1     -0.028245635984     12.010780000000
   100 pTyr_peptide_99       1 LIG      CG         1     -0.145605721233     12.010780000000
   101 pTyr_peptide_100       1 LIG      CD1        1      0.005217588784     12.010780000000
   102 pTyr_peptide_101       1 LIG      CD2        1     -0.085297026394     12.010780000000
   103 pTyr_peptide_102       1 LIG      CE2        1      0.086829684021     12.010780000000
   104 pTyr_peptide_103       1 LIG      CE3        1     -0.079878971634     12.010780000000
   105 pTyr_peptide_104       1 LIG      NE1        1     -0.581498556493     14.006720000000
   106 pTyr_peptide_105       1 LIG      CZ2        1     -0.155986123441     12.010780000000
   107 pTyr_peptide_106       1 LIG      CZ3        1     -0.164298900125     12.010780000000
   108 pTyr_peptide_107       1 LIG      CH2        1     -0.115010940192     12.010780000000
   109 pTyr_peptide_108       1 LIG      C          1      0.655794448497     12.010780000000
   110 pTyr_peptide_109       1 LIG      O          1     -0.636823706983     15.999430000000
   111 pTyr_peptide_110       1 LIG      C          1     -0.180547498820     12.010780000000
   112 pTyr_peptide_111       1 LIG      N          1     -0.575673573373     14.006720000000
   113 pTyr_peptide_112       1 LIG      C          1      0.077840908708     12.010780000000
   114 pTyr_peptide_113       1 LIG      H          1      0.308163262250      1.007947000000
   115 pTyr_peptide_114       1 LIG      H          1      0.104202679636      1.007947000000
   116 pTyr_peptide_115       1 LIG      H          1      0.041159472706      1.007947000000
   117 pTyr_peptide_116       1 LIG      H          1      0.041159472706      1.007947000000
   118 pTyr_peptide_117       1 LIG      H          1      0.333746738078      1.007947000000
   119 pTyr_peptide_118       1 LIG      H          1      0.093926913383      1.007947000000
   120 pTyr_peptide_119       1 LIG      H          1      0.068073309304      1.007947000000
   121 pTyr_peptide_120       1 LIG      H          1      0.068073309304      1.007947000000
   122 pTyr_peptide_121       1 LIG      H          1      0.174847922565      1.007947000000
   123 pTyr_peptide_122       1 LIG      H          1      0.059991265925      1.007947000000
   124 pTyr_peptide_123       1 LIG      H          1      0.299338854196      1.007947000000
   125 pTyr_peptide_124       1 LIG      H          1      0.320956713798      1.007947000000
   126 pTyr_peptide_125       1 LIG      H          1      0.091169945242      1.007947000000
   127 pTyr_peptide_126       1 LIG      H          1      0.072315587940      1.007947000000
   128 pTyr_peptide_127       1 LIG      H          1      0.072315587940      1.007947000000
   129 pTyr_peptide_128       1 LIG      H          1      0.025026475357      1.007947000000
   130 pTyr_peptide_129       1 LIG      H          1      0.025026475357      1.007947000000
   131 pTyr_peptide_130       1 LIG      H          1      0.080725743713      1.007947000000
   132 pTyr_peptide_131       1 LIG      H          1      0.059121749641      1.007947000000
   133 pTyr_peptide_132       1 LIG      H          1      0.059121749641      1.007947000000
   134 pTyr_peptide_133       1 LIG      H          1      0.055561433824      1.007947000000
   135 pTyr_peptide_134       1 LIG      H          1      0.055561433824      1.007947000000
   136 pTyr_peptide_135       1 LIG      H          1      0.046905643584      1.007947000000
   137 pTyr_peptide_136       1 LIG      H          1      0.046905643584      1.007947000000
   138 pTyr_peptide_137       1 LIG      H          1      0.312995708825      1.007947000000
   139 pTyr_peptide_138       1 LIG      H          1      0.087270303907      1.007947000000
   140 pTyr_peptide_139       1 LIG      H          1      0.060706305595      1.007947000000
   141 pTyr_peptide_140       1 LIG      H          1      0.041344556304      1.007947000000
   142 pTyr_peptide_141       1 LIG      H          1      0.041344556304      1.007947000000
   143 pTyr_peptide_142       1 LIG      H          1      0.038128773959      1.007947000000
   144 pTyr_peptide_143       1 LIG      H          1      0.038128773959      1.007947000000
   145 pTyr_peptide_144       1 LIG      H          1      0.038128773959      1.007947000000
   146 pTyr_peptide_145       1 LIG      H          1      0.032341554107      1.007947000000
   147 pTyr_peptide_146       1 LIG      H          1      0.032341554107      1.007947000000
   148 pTyr_peptide_147       1 LIG      H          1      0.032341554107      1.007947000000
   149 pTyr_peptide_148       1 LIG      H          1      0.306427276971      1.007947000000
   150 pTyr_peptide_149       1 LIG      H          1      0.080477840545      1.007947000000
   151 pTyr_peptide_150       1 LIG      H          1      0.018403177427      1.007947000000
   152 pTyr_peptide_151       1 LIG      H          1      0.402322984578      1.007947000000
   153 pTyr_peptide_152       1 LIG      H          1      0.053986403437      1.007947000000
   154 pTyr_peptide_153       1 LIG      H          1      0.053986403437      1.007947000000
   155 pTyr_peptide_154       1 LIG      H          1      0.046364016177      1.007947000000
   156 pTyr_peptide_155       1 LIG      H          1      0.033729295524      1.007947000000
   157 pTyr_peptide_156       1 LIG      H          1      0.033729295524      1.007947000000
   158 pTyr_peptide_157       1 LIG      H          1      0.033729295524      1.007947000000
   159 pTyr_peptide_158       1 LIG      H          1      0.033729295524      1.007947000000
   160 pTyr_peptide_159       1 LIG      H          1      0.048019661846      1.007947000000
   161 pTyr_peptide_160       1 LIG      H          1      0.048019661846      1.007947000000
   162 pTyr_peptide_161       1 LIG      H          1      0.048019661846      1.007947000000
   163 pTyr_peptide_162       1 LIG      H          1      0.048019661846      1.007947000000
   164 pTyr_peptide_163       1 LIG      H          1      0.041851884963      1.007947000000
   165 pTyr_peptide_164       1 LIG      H          1      0.369943595769      1.007947000000
   166 pTyr_peptide_165       1 LIG      H          1      0.063018626811      1.007947000000
   167 pTyr_peptide_166       1 LIG      H          1      0.061415835561      1.007947000000
   168 pTyr_peptide_167       1 LIG      H          1      0.061415835561      1.007947000000
   169 pTyr_peptide_168       1 LIG      H          1      0.024713251086      1.007947000000
   170 pTyr_peptide_169       1 LIG      H          1      0.024713251086      1.007947000000
   171 pTyr_peptide_170       1 LIG      H          1      0.313791699054      1.007947000000
   172 pTyr_peptide_171       1 LIG      H          1      0.086980304958      1.007947000000
   173 pTyr_peptide_172       1 LIG      H          1      0.074205889644      1.007947000000
   174 pTyr_peptide_173       1 LIG      H          1      0.074205889644      1.007947000000
   175 pTyr_peptide_174       1 LIG      H          1      0.062300025763      1.007947000000
   176 pTyr_peptide_175       1 LIG      H          1      0.062300025763      1.007947000000
   177 pTyr_peptide_176       1 LIG      H          1      0.306576377990      1.007947000000
   178 pTyr_peptide_177       1 LIG      H          1      0.306576377990      1.007947000000
   179 pTyr_peptide_178       1 LIG      H          1      0.318666584136      1.007947000000
   180 pTyr_peptide_179       1 LIG      H          1      0.091163396182      1.007947000000
   181 pTyr_peptide_180       1 LIG      H          1      0.063162497522      1.007947000000
   182 pTyr_peptide_181       1 LIG      H          1      0.063162497522      1.007947000000
   183 pTyr_peptide_182       1 LIG      H          1      0.163797430040      1.007947000000
   184 pTyr_peptide_183       1 LIG      H          1      0.133343569281      1.007947000000
   185 pTyr_peptide_184       1 LIG      H          1      0.448449588658      1.007947000000
   186 pTyr_peptide_185       1 LIG      H          1      0.130424625518      1.007947000000
   187 pTyr_peptide_186       1 LIG      H          1      0.127020783069      1.007947000000
   188 pTyr_peptide_187       1 LIG      H          1      0.128577641489      1.007947000000
   189 pTyr_peptide_188       1 LIG      H          1      0.322466767671      1.007947000000
   190 pTyr_peptide_189       1 LIG      H          1      0.069234445037      1.007947000000
   191 pTyr_peptide_190       1 LIG      H          1      0.069234445037      1.007947000000
   192 pTyr_peptide_191       1 LIG      H          1      0.314633972289      1.007947000000
   193 pTyr_peptide_192       1 LIG      H          1      0.086759946587      1.007947000000
   194 pTyr_peptide_193       1 LIG      H          1      0.063598617258      1.007947000000
   195 pTyr_peptide_194       1 LIG      H          1      0.063598617258      1.007947000000
   196 pTyr_peptide_195       1 LIG      H          1      0.163797430040      1.007947000000
   197 pTyr_peptide_196       1 LIG      H          1      0.133343569281      1.007947000000
   198 pTyr_peptide_197       1 LIG      H          1      0.448449588658      1.007947000000
   199 pTyr_peptide_198       1 LIG      H          1      0.130424625518      1.007947000000
   200 pTyr_peptide_199       1 LIG      H          1      0.127020783069      1.007947000000
   201 pTyr_peptide_200       1 LIG      H          1      0.128577641489      1.007947000000
   202 pTyr_peptide_201       1 LIG      H          1      0.062421149852      1.007947000000
   203 pTyr_peptide_202       1 LIG      H          1      0.062421149852      1.007947000000
   204 pTyr_peptide_203       1 LIG      H          1      0.062421149852      1.007947000000
   205 pTyr_peptide_204       1 LIG      H          1      0.309718496444      1.007947000000
   206 pTyr_peptide_205       1 LIG      H          1      0.041344273182      1.007947000000
   207 pTyr_peptide_206       1 LIG      H          1      0.041344273182      1.007947000000
   208 pTyr_peptide_207       1 LIG      H          1      0.041344273182      1.007947000000

[ pairs ]
;ai    aj   funct
    42	   140	     1
    59	   150	     1
     3	    13	     1
    30	    39	     1
    71	   172	     1
    59	   152	     1
    41	   141	     1
    41	   142	     1
    45	    48	     1
    72	    75	     1
    72	    76	     1
    72	    77	     1
    43	   151	     1
    85	   183	     1
    28	   126	     1
    85	   184	     1
    97	   206	     1
    97	   207	     1
    97	   208	     1
    59	    62	     1
    84	   187	     1
    82	   184	     1
    82	   185	     1
   127	   129	     1
   127	   130	     1
    97	   192	     1
    43	    59	     1
    54	   160	     1
    54	   161	     1
    99	   105	     1
    27	   129	     1
    54	   162	     1
    28	    35	     1
   196	   198	     1
    27	   130	     1
     1	     4	     1
     1	     6	     1
   114	   115	     1
    11	   126	     1
    70	    73	     1
    68	   173	     1
    68	   174	     1
    83	   181	     1
    83	   182	     1
    13	   118	     1
    69	    78	     1
    40	   145	     1
    80	   180	     1
   155	   156	     1
   155	   157	     1
   125	   126	     1
    79	   182	     1
    83	    88	     1
    81	    85	     1
    94	   190	     1
    25	   127	     1
    94	   191	     1
    11	    21	     1
    94	   192	     1
     9	   121	     1
    52	   155	     1
    11	    23	     1
   106	   198	     1
   106	   200	     1
    22	   126	     1
   139	   140	     1
   168	   170	     1
   166	   167	     1
   166	   168	     1
    39	   138	     1
    97	   100	     1
    21	   128	     1
    79	    93	     1
    92	    96	     1
    21	   131	     1
   111	   114	     1
    98	   113	     1
    50	   164	     1
    22	    34	     1
    37	    40	     1
   180	   181	     1
    37	    41	     1
    35	   140	     1
    36	    44	     1
    62	   171	     1
     9	    19	     1
    95	   112	     1
    53	    57	     1
   122	   124	     1
    53	    58	     1
    47	   149	     1
    49	   153	     1
    51	    55	     1
    49	   154	     1
     7	   116	     1
   193	   194	     1
    47	   151	     1
     7	   117	     1
    23	    28	     1
    21	    24	     1
   193	   195	     1
    95	    98	     1
    34	   131	     1
    34	   132	     1
    78	   189	     1
    34	   133	     1
    38	    39	     1
    63	   165	     1
    48	   160	     1
    48	   161	     1
     3	    11	     1
    48	   162	     1
    62	    63	     1
    35	    38	     1
   102	   199	     1
    47	    59	     1
   102	   200	     1
    75	   175	     1
   150	   151	     1
    61	    70	     1
    60	   151	     1
    61	    72	     1
     1	   204	     1
    78	    83	     1
     5	   114	     1
    78	    84	     1
    48	    53	     1
     2	   110	     1
    89	   186	     1
     4	   115	     1
     2	   111	     1
   103	   196	     1
   103	   197	     1
     4	   118	     1
   163	   164	     1
   133	   135	     1
    16	   122	     1
   100	   197	     1
   100	   198	     1
    20	    29	     1
    16	   124	     1
   160	   164	     1
    87	    90	     1
    31	   131	     1
    32	    35	     1
    46	    60	     1
     3	   109	     1
   174	   176	     1
     4	    10	     1
   172	   173	     1
     2	     7	     1
    59	   168	     1
   172	   174	     1
     2	     8	     1
    72	   171	     1
    44	   165	     1
    46	    47	     1
    71	   179	     1
   158	   162	     1
    43	   153	     1
   158	   163	     1
    43	   154	     1
     1	   116	     1
    70	   180	     1
   131	   132	     1
     1	   117	     1
    85	   188	     1
   103	   107	     1
    28	   132	     1
   101	   104	     1
    28	   133	     1
    59	    64	     1
    43	   139	     1
    28	   134	     1
    44	    60	     1
   199	   201	     1
   100	   106	     1
    97	   194	     1
    29	    36	     1
   100	   107	     1
    97	   195	     1
    54	   163	     1
    12	   125	     1
   115	   116	     1
    98	   205	     1
    71	    72	     1
    43	    46	     1
    41	    42	     1
    67	   169	     1
    99	   112	     1
     1	     9	     1
    43	    48	     1
    84	   181	     1
   141	   146	     1
   183	   185	     1
   141	   147	     1
   141	   148	     1
    98	   193	     1
    14	   119	     1
    81	   179	     1
   128	   129	     1
   128	   130	     1
   126	   127	     1
    11	   118	     1
   155	   158	     1
    13	   122	     1
   126	   128	     1
   155	   159	     1
    11	   120	     1
    95	   190	     1
    84	    90	     1
    12	    20	     1
    95	   191	     1
    81	    86	     1
    81	    87	     1
    25	   128	     1
   107	   199	     1
    37	   150	     1
    10	   125	     1
    79	   190	     1
    92	   192	     1
    79	   191	     1
    40	   139	     1
    68	    71	     1
    52	   160	     1
    80	    92	     1
    68	    73	     1
   151	   165	     1
    51	   162	     1
    37	   138	     1
    51	   163	     1
    66	   169	     1
    13	    17	     1
    66	   170	     1
    11	    14	     1
    13	    18	     1
    13	    19	     1
     9	   115	     1
   153	   155	     1
    36	   141	     1
    21	   136	     1
    80	    81	     1
   151	   152	     1
    10	    15	     1
    21	   137	     1
    36	   142	     1
   180	   182	     1
    10	    16	     1
    36	   143	     1
    36	   144	     1
    38	   149	     1
    79	    82	     1
    93	   189	     1
    98	    99	     1
    37	    45	     1
    53	   156	     1
    23	   125	     1
    96	   113	     1
    37	    47	     1
    50	   153	     1
    52	    55	     1
    50	   154	     1
    22	    23	     1
    77	   181	     1
    50	   156	     1
    77	   182	     1
    35	   131	     1
    93	    97	     1
    49	   158	     1
    49	   159	     1
    95	   100	     1
    47	   156	     1
    64	   166	     1
    21	    30	     1
    48	   163	     1
    38	    44	     1
   109	   115	     1
    61	   165	     1
    77	    91	     1
   205	   206	     1
    35	    40	     1
    61	   167	     1
   205	   207	     1
    35	    41	     1
    61	   168	     1
   205	   208	     1
    91	   180	     1
    76	   175	     1
    35	    43	     1
    62	    69	     1
   123	   124	     1
    60	   169	     1
    60	   170	     1
    48	   150	     1
     8	   116	     1
    75	   176	     1
    60	   171	     1
     8	   117	     1
   150	   153	     1
   150	   154	     1
    90	   184	     1
    49	    52	     1
    49	    54	     1
    93	    99	     1
   101	   194	     1
    87	   186	     1
   101	   195	     1
    17	   122	     1
   134	   136	     1
   103	   201	     1
    63	    66	     1
    19	   127	     1
   134	   137	     1
     2	   118	     1
    63	    67	     1
    19	   128	     1
   161	   164	     1
    86	   188	     1
    63	    68	     1
    60	    65	     1
    73	   172	     1
    20	    34	     1
     5	     9	     1
    31	   138	     1
    30	   139	     1
     3	   114	     1
     2	    10	     1
    45	   149	     1
    19	    22	     1
   112	   193	     1
    99	   192	     1
   189	   190	     1
    19	    24	     1
   189	   191	     1
    15	   120	     1
    15	   121	     1
    44	   152	     1
   159	   162	     1
   186	   188	     1
   159	   163	     1
    44	   155	     1
   104	   105	     1
   104	   106	     1
    31	    32	     1
   131	   133	     1
     3	     6	     1
    30	    33	     1
    30	    34	     1
   173	   175	     1
   200	   201	     1
   101	   106	     1
    28	   135	     1
    30	    37	     1
    59	    68	     1
    41	   139	     1
   118	   119	     1
    55	   164	     1
   197	   200	     1
    70	   171	     1
    70	   173	     1
   115	   117	     1
    70	   174	     1
    44	    49	     1
    67	   170	     1
   142	   146	     1
    44	    50	     1
    69	   175	     1
   142	   147	     1
    69	   176	     1
   142	   148	     1
    84	   182	     1
    71	    78	     1
   184	   187	     1
    84	   183	     1
    82	   180	     1
    69	   179	     1
    96	   205	     1
    84	   185	     1
    70	    79	     1
    84	   186	     1
    70	    81	     1
    12	   119	     1
    14	   123	     1
    81	   183	     1
    28	    31	     1
    14	   124	     1
   156	   160	     1
    85	    89	     1
   156	   161	     1
    99	   103	     1
    99	   104	     1
    11	   121	     1
   110	   202	     1
    68	   166	     1
    82	    88	     1
   110	   203	     1
    26	   129	     1
    82	    89	     1
   110	   204	     1
    26	   130	     1
    95	   194	     1
    80	   189	     1
    95	   195	     1
   140	   141	     1
    81	    91	     1
   140	   142	     1
   140	   143	     1
   167	   169	     1
   140	   144	     1
   167	   170	     1
    69	    74	     1
   140	   145	     1
    52	   161	     1
    40	   143	     1
    12	    13	     1
    40	   144	     1
    68	    77	     1
    37	   140	     1
    79	   179	     1
   154	   155	     1
    39	   146	     1
    83	    86	     1
    79	   181	     1
    39	   147	     1
    39	   148	     1
   108	   197	     1
    36	   145	     1
     9	   120	     1
    24	   126	     1
    10	    20	     1
    53	   157	     1
    53	   158	     1
    36	   149	     1
    93	   193	     1
    51	   155	     1
    53	   159	     1
   168	   169	     1
    21	   125	     1
   138	   139	     1
   165	   166	     1
    94	    96	     1
    21	   127	     1
    50	   157	     1
   192	   193	     1
    38	   139	     1
    22	    29	     1
    96	   101	     1
    96	   102	     1
    65	   167	     1
    65	   168	     1
    47	   157	     1
    47	   158	     1
    39	    43	     1
   110	   114	     1
    47	   159	     1
    21	    32	     1
     9	    12	     1
    49	   164	     1
    21	    33	     1
    62	   166	     1
   179	   180	     1
    77	   172	     1
     9	    14	     1
    36	    42	     1
    76	   176	     1
    53	    56	     1
    76	   177	     1
    61	   172	     1
    50	    51	     1
    76	   178	     1
    23	    26	     1
    23	    27	     1
    50	    54	     1
    77	    80	     1
     6	   115	     1
    77	    82	     1
    47	    51	     1
    47	    52	     1
   105	   199	     1
   102	   194	     1
   102	   195	     1
   102	   196	     1
   135	   136	     1
   104	   201	     1
   135	   137	     1
   102	   198	     1
   162	   164	     1
    78	    92	     1
    91	    94	     1
    20	   129	     1
    91	    95	     1
    20	   130	     1
   132	   134	     1
    61	    64	     1
   132	   135	     1
     5	   109	     1
    74	   173	     1
    74	   174	     1
   149	   150	     1
    32	   136	     1
    32	   137	     1
    60	    69	     1
     1	   202	     1
   119	   120	     1
     1	   203	     1
   119	   121	     1
    46	   165	     1
    73	   177	     1
    19	   119	     1
    73	   178	     1
    88	   185	     1
    45	   166	     1
    88	   187	     1
     3	   116	     1
    46	   150	     1
     3	   117	     1
   100	   193	     1
    20	    25	     1
    16	   120	     1
   133	   134	     1
     3	   119	     1
    16	   121	     1
    33	   131	     1
   187	   188	     1
    45	   153	     1
    99	   196	     1
    45	   154	     1
    86	    87	     1
    19	    28	     1
    15	   123	     1
    86	    88	     1
   157	   160	     1
   157	   161	     1
     4	     5	     1
    30	   132	     1
   105	   108	     1
    30	   133	     1
   174	   175	     1
    29	   134	     1
    31	    36	     1
    29	   135	     1
    59	   167	     1
    45	    61	     1
    29	   136	     1
   171	   172	     1
   173	   176	     1
   102	   108	     1
    29	   137	     1
    45	    63	     1
    29	   138	     1

[ bonds ]
;ai    aj   funct r k
     1      2      1      0.145009858627  294600.927775905351 
     1    109      1      0.138189777668  412347.817359175009 
     1    114      1      0.101948186503  422704.914414302446 
     2      3      1      0.152343595833  275676.608549002965 
     2      5      1      0.152190126495  221435.259290285845 
     2    115      1      0.109389949263  309655.084322414012 
     3      4      1      0.122519838622  487602.327766196802 
     3      9      1      0.138189777668  412347.817359175009 
     5      6      1      0.152343595833  275676.608549002965 
     5    116      1      0.109389949263  309655.084322414012 
     5    117      1      0.109389949263  309655.084322414012 
     6      7      1      0.125657029984  483214.205774865637 
     6      8      1      0.125657029984  483214.205774865637 
     9     10      1      0.145009858627  294600.927775905351 
     9    118      1      0.101948186503  422704.914414302446 
    10     11      1      0.152343595833  275676.608549002965 
    10     13      1      0.152190126495  221435.259290285845 
    10    119      1      0.109389949263  309655.084322414012 
    11     12      1      0.122519838622  487602.327766196802 
    11     19      1      0.138189777668  412347.817359175009 
    13     14      1      0.149864681646  242452.869388089370 
    13    120      1      0.109389949263  309655.084322414012 
    13    121      1      0.109389949263  309655.084322414012 
    14     15      1      0.137168856202  334016.498331725656 
    14     16      1      0.137924439427  320113.670209784526 
    15     18      1      0.139016055469  326381.745633409882 
    15    122      1      0.108535849592  332422.631675317942 
    16     17      1      0.130482617999  422987.308773913654 
    17     18      1      0.139016055469  326381.745633409882 
    17    123      1      0.108535849592  332422.631675317942 
    18    124      1      0.101948186503  422704.914414302446 
    19     20      1      0.145009858627  294600.927775905351 
    19    125      1      0.101948186503  422704.914414302446 
    20     21      1      0.152343595833  275676.608549002965 
    20     23      1      0.152190126495  221435.259290285845 
    20    126      1      0.109389949263  309655.084322414012 
    21     22      1      0.122519838622  487602.327766196802 
    21     28      1      0.138189777668  412347.817359175009 
    23     24      1      0.152190126495  221435.259290285845 
    23    127      1      0.109389949263  309655.084322414012 
    23    128      1      0.109389949263  309655.084322414012 
    24     25      1      0.152343595833  275676.608549002965 
    24    129      1      0.109389949263  309655.084322414012 
    24    130      1      0.109389949263  309655.084322414012 
    25     26      1      0.125657029984  483214.205774865637 
    25     27      1      0.125657029984  483214.205774865637 
    28     29      1      0.145009858627  294600.927775905351 
    28     34      1      0.145009858627  294600.927775905351 
    29     30      1      0.152343595833  275676.608549002965 
    29     32      1      0.152190126495  221435.259290285845 
    29    131      1      0.109389949263  309655.084322414012 
    30     31      1      0.122519838622  487602.327766196802 
    30     35      1      0.138189777668  412347.817359175009 
    32     33      1      0.152190126495  221435.259290285845 
    32    132      1      0.109389949263  309655.084322414012 
    32    133      1      0.109389949263  309655.084322414012 
    33     34      1      0.152190126495  221435.259290285845 
    33    134      1      0.109389949263  309655.084322414012 
    33    135      1      0.109389949263  309655.084322414012 
    34    136      1      0.109389949263  309655.084322414012 
    34    137      1      0.109389949263  309655.084322414012 
    35     36      1      0.145009858627  294600.927775905351 
    35    138      1      0.101948186503  422704.914414302446 
    36     37      1      0.152343595833  275676.608549002965 
    36     39      1      0.152190126495  221435.259290285845 
    36    139      1      0.109389949263  309655.084322414012 
    37     38      1      0.122519838622  487602.327766196802 
    37     43      1      0.138189777668  412347.817359175009 
    39     40      1      0.152190126495  221435.259290285845 
    39     41      1      0.152190126495  221435.259290285845 
    39    140      1      0.109389949263  309655.084322414012 
    40     42      1      0.152190126495  221435.259290285845 
    40    141      1      0.109389949263  309655.084322414012 
    40    142      1      0.109389949263  309655.084322414012 
    41    143      1      0.109389949263  309655.084322414012 
    41    144      1      0.109389949263  309655.084322414012 
    41    145      1      0.109389949263  309655.084322414012 
    42    146      1      0.109389949263  309655.084322414012 
    42    147      1      0.109389949263  309655.084322414012 
    42    148      1      0.109389949263  309655.084322414012 
    43     44      1      0.145009858627  294600.927775905351 
    43    149      1      0.101948186503  422704.914414302446 
    44     45      1      0.152190126495  221435.259290285845 
    44     47      1      0.152190126495  221435.259290285845 
    44    150      1      0.109389949263  309655.084322414012 
    45     46      1      0.142734395872  276118.879748549080 
    45     59      1      0.146476295726  306553.707217167306 
    45    151      1      0.109389949263  309655.084322414012 
    46    152      1      0.097167633126  454823.212172136817 
    47     48      1      0.152190126495  221435.259290285845 
    47    153      1      0.109389949263  309655.084322414012 
    47    154      1      0.109389949263  309655.084322414012 
    48     49      1      0.152190126495  221435.259290285845 
    48     50      1      0.152190126495  221435.259290285845 
    48    155      1      0.109389949263  309655.084322414012 
    49     51      1      0.152190126495  221435.259290285845 
    49    156      1      0.109389949263  309655.084322414012 
    49    157      1      0.109389949263  309655.084322414012 
    50     52      1      0.152190126495  221435.259290285845 
    50    158      1      0.109389949263  309655.084322414012 
    50    159      1      0.109389949263  309655.084322414012 
    51     53      1      0.152190126495  221435.259290285845 
    51    160      1      0.109389949263  309655.084322414012 
    51    161      1      0.109389949263  309655.084322414012 
    52     53      1      0.152190126495  221435.259290285845 
    52    162      1      0.109389949263  309655.084322414012 
    52    163      1      0.109389949263  309655.084322414012 
    53     54      1      0.142589505373  306888.771877388994 
    53    164      1      0.109389949263  309655.084322414012 
    54     55      1      0.164408033210  227238.415703448671 
    55     56      1      0.149099106101  462981.098502852023 
    55     57      1      0.149099106101  462981.098502852023 
    55     58      1      0.149099106101  462981.098502852023 
    59     60      1      0.146476295726  306553.707217167306 
    59    165      1      0.101948186503  422704.914414302446 
    60     61      1      0.152343595833  275676.608549002965 
    60     63      1      0.152190126495  221435.259290285845 
    60    166      1      0.109389949263  309655.084322414012 
    61     62      1      0.122519838622  487602.327766196802 
    61     68      1      0.138189777668  412347.817359175009 
    63     64      1      0.152190126495  221435.259290285845 
    63    167      1      0.109389949263  309655.084322414012 
    63    168      1      0.109389949263  309655.084322414012 
    64     65      1      0.152343595833  275676.608549002965 
    64    169      1      0.109389949263  309655.084322414012 
    64    170      1      0.109389949263  309655.084322414012 
    65     66      1      0.125657029984  483214.205774865637 
    65     67      1      0.125657029984  483214.205774865637 
    68     69      1      0.145009858627  294600.927775905351 
    68    171      1      0.101948186503  422704.914414302446 
    69     70      1      0.152343595833  275676.608549002965 
    69     72      1      0.152190126495  221435.259290285845 
    69    172      1      0.109389949263  309655.084322414012 
    70     71      1      0.122519838622  487602.327766196802 
    70     77      1      0.138189777668  412347.817359175009 
    72     73      1      0.152190126495  221435.259290285845 
    72    173      1      0.109389949263  309655.084322414012 
    72    174      1      0.109389949263  309655.084322414012 
    73     74      1      0.152343595833  275676.608549002965 
    73    175      1      0.109389949263  309655.084322414012 
    73    176      1      0.109389949263  309655.084322414012 
    74     75      1      0.138189777668  412347.817359175009 
    74     76      1      0.122519838622  487602.327766196802 
    75    177      1      0.101948186503  422704.914414302446 
    75    178      1      0.101948186503  422704.914414302446 
    77     78      1      0.145009858627  294600.927775905351 
    77    179      1      0.101948186503  422704.914414302446 
    78     79      1      0.152343595833  275676.608549002965 
    78     81      1      0.152190126495  221435.259290285845 
    78    180      1      0.109389949263  309655.084322414012 
    79     80      1      0.122519838622  487602.327766196802 
    79     91      1      0.138189777668  412347.817359175009 
    81     82      1      0.149864681646  242452.869388089370 
    81    181      1      0.109389949263  309655.084322414012 
    81    182      1      0.109389949263  309655.084322414012 
    82     83      1      0.137168856202  334016.498331725656 
    82     84      1      0.145462892503  233580.248617646750 
    83     87      1      0.139016055469  326381.745633409882 
    83    183      1      0.108535849592  332422.631675317942 
    84     85      1      0.138719322718  301905.092578520998 
    84     86      1      0.138719322718  301905.092578520998 
    85     87      1      0.139016055469  326381.745633409882 
    85     88      1      0.138719322718  301905.092578520998 
    86     89      1      0.138719322718  301905.092578520998 
    86    184      1      0.108535849592  332422.631675317942 
    87    185      1      0.101948186503  422704.914414302446 
    88     90      1      0.138719322718  301905.092578520998 
    88    186      1      0.108535849592  332422.631675317942 
    89     90      1      0.138719322718  301905.092578520998 
    89    187      1      0.108535849592  332422.631675317942 
    90    188      1      0.108535849592  332422.631675317942 
    91     92      1      0.145009858627  294600.927775905351 
    91    189      1      0.101948186503  422704.914414302446 
    92     93      1      0.152343595833  275676.608549002965 
    92    190      1      0.109389949263  309655.084322414012 
    92    191      1      0.109389949263  309655.084322414012 
    93     94      1      0.122519838622  487602.327766196802 
    93     95      1      0.138189777668  412347.817359175009 
    95     96      1      0.145009858627  294600.927775905351 
    95    192      1      0.101948186503  422704.914414302446 
    96     97      1      0.152343595833  275676.608549002965 
    96     99      1      0.152190126495  221435.259290285845 
    96    193      1      0.109389949263  309655.084322414012 
    97     98      1      0.122519838622  487602.327766196802 
    97    112      1      0.138189777668  412347.817359175009 
    99    100      1      0.149864681646  242452.869388089370 
    99    194      1      0.109389949263  309655.084322414012 
    99    195      1      0.109389949263  309655.084322414012 
   100    101      1      0.137168856202  334016.498331725656 
   100    102      1      0.145462892503  233580.248617646750 
   101    105      1      0.139016055469  326381.745633409882 
   101    196      1      0.108535849592  332422.631675317942 
   102    103      1      0.138719322718  301905.092578520998 
   102    104      1      0.138719322718  301905.092578520998 
   103    105      1      0.139016055469  326381.745633409882 
   103    106      1      0.138719322718  301905.092578520998 
   104    107      1      0.138719322718  301905.092578520998 
   104    197      1      0.108535849592  332422.631675317942 
   105    198      1      0.101948186503  422704.914414302446 
   106    108      1      0.138719322718  301905.092578520998 
   106    199      1      0.108535849592  332422.631675317942 
   107    108      1      0.138719322718  301905.092578520998 
   107    200      1      0.108535849592  332422.631675317942 
   108    201      1      0.108535849592  332422.631675317942 
   109    110      1      0.122519838622  487602.327766196802 
   109    111      1      0.152343595833  275676.608549002965 
   111    202      1      0.109389949263  309655.084322414012 
   111    203      1      0.109389949263  309655.084322414012 
   111    204      1      0.109389949263  309655.084322414012 
   112    113      1      0.145009858627  294600.927775905351 
   112    205      1      0.101948186503  422704.914414302446 
   113    206      1      0.109389949263  309655.084322414012 
   113    207      1      0.109389949263  309655.084322414012 
   113    208      1      0.109389949263  309655.084322414012 

[ angles ]
;ai    aj   ak   funct theta  k
     1      2      3      1     116.547586263400     445.222086509286 
     1      2      5      1     116.547586263400     445.222086509286 
     1      2    115      1     116.547586263400     445.222086509286 
     1    109    110      1     126.806242045100     484.492885493347 
     1    109    111      1     126.806242045100     484.492885493347 
     2      1    109      1     117.346557051400     463.769802376852 
     2      1    114      1     115.507132767400     530.901282784327 
     2      3      4      1     126.806242045100     484.492885493347 
     2      3      9      1     126.806242045100     484.492885493347 
     2      5      6      1     116.547586263400     445.222086509286 
     2      5    116      1     116.547586263400     445.222086509286 
     2      5    117      1     116.547586263400     445.222086509286 
     3      2      5      1     116.547586263400     445.222086509286 
     3      2    115      1     116.547586263400     445.222086509286 
     3      9     10      1     117.346557051400     463.769802376852 
     3      9    118      1     115.507132767400     530.901282784327 
     4      3      9      1     126.806242045100     484.492885493347 
     5      2    115      1     116.547586263400     445.222086509286 
     5      6      7      1     126.806242045100     484.492885493347 
     5      6      8      1     126.806242045100     484.492885493347 
     6      5    116      1     116.547586263400     445.222086509286 
     6      5    117      1     116.547586263400     445.222086509286 
     7      6      8      1     127.469141619100    1685.413543333009 
     9     10     11      1     116.547586263400     445.222086509286 
     9     10     13      1     116.547586263400     445.222086509286 
     9     10    119      1     116.547586263400     445.222086509286 
    10      9    118      1     115.507132767400     530.901282784327 
    10     11     12      1     126.806242045100     484.492885493347 
    10     11     19      1     126.806242045100     484.492885493347 
    10     13     14      1     116.547586263400     445.222086509286 
    10     13    120      1     116.547586263400     445.222086509286 
    10     13    121      1     116.547586263400     445.222086509286 
    11     10     13      1     116.547586263400     445.222086509286 
    11     10    119      1     116.547586263400     445.222086509286 
    11     19     20      1     117.346557051400     463.769802376852 
    11     19    125      1     115.507132767400     530.901282784327 
    12     11     19      1     126.806242045100     484.492885493347 
    13     10    119      1     116.547586263400     445.222086509286 
    13     14     15      1     129.802730460800     331.608082005356 
    13     14     16      1     129.802730460800     331.608082005356 
    14     13    120      1     116.547586263400     445.222086509286 
    14     13    121      1     116.547586263400     445.222086509286 
    14     15     18      1     126.806242045100     484.492885493347 
    14     15    122      1     129.802730460800     331.608082005356 
    14     16     17      1     112.871400968100     460.899611617895 
    15     14     16      1     126.806242045100     484.492885493347 
    15     18     17      1     117.346557051400     463.769802376852 
    15     18    124      1     115.507132767400     530.901282784327 
    16     17     18      1     126.806242045100     484.492885493347 
    16     17    123      1     129.802730460800     331.608082005356 
    17     18    124      1     115.507132767400     530.901282784327 
    18     15    122      1     129.802730460800     331.608082005356 
    18     17    123      1     129.802730460800     331.608082005356 
    19     20     21      1     116.547586263400     445.222086509286 
    19     20     23      1     116.547586263400     445.222086509286 
    19     20    126      1     116.547586263400     445.222086509286 
    20     19    125      1     115.507132767400     530.901282784327 
    20     21     22      1     126.806242045100     484.492885493347 
    20     21     28      1     126.806242045100     484.492885493347 
    20     23     24      1     116.547586263400     445.222086509286 
    20     23    127      1     116.547586263400     445.222086509286 
    20     23    128      1     116.547586263400     445.222086509286 
    21     20     23      1     116.547586263400     445.222086509286 
    21     20    126      1     116.547586263400     445.222086509286 
    21     28     29      1     117.346557051400     463.769802376852 
    21     28     34      1     117.346557051400     463.769802376852 
    22     21     28      1     126.806242045100     484.492885493347 
    23     20    126      1     116.547586263400     445.222086509286 
    23     24     25      1     116.547586263400     445.222086509286 
    23     24    129      1     116.547586263400     445.222086509286 
    23     24    130      1     116.547586263400     445.222086509286 
    24     23    127      1     116.547586263400     445.222086509286 
    24     23    128      1     116.547586263400     445.222086509286 
    24     25     26      1     126.806242045100     484.492885493347 
    24     25     27      1     126.806242045100     484.492885493347 
    25     24    129      1     116.547586263400     445.222086509286 
    25     24    130      1     116.547586263400     445.222086509286 
    26     25     27      1     127.469141619100    1685.413543333009 
    28     29     30      1     116.547586263400     445.222086509286 
    28     29     32      1     116.547586263400     445.222086509286 
    28     29    131      1     116.547586263400     445.222086509286 
    28     34     33      1     116.547586263400     445.222086509286 
    28     34    136      1     116.547586263400     445.222086509286 
    28     34    137      1     116.547586263400     445.222086509286 
    29     28     34      1     117.346557051400     463.769802376852 
    29     30     31      1     126.806242045100     484.492885493347 
    29     30     35      1     126.806242045100     484.492885493347 
    29     32     33      1     116.547586263400     445.222086509286 
    29     32    132      1     116.547586263400     445.222086509286 
    29     32    133      1     116.547586263400     445.222086509286 
    30     29     32      1     116.547586263400     445.222086509286 
    30     29    131      1     116.547586263400     445.222086509286 
    30     35     36      1     117.346557051400     463.769802376852 
    30     35    138      1     115.507132767400     530.901282784327 
    31     30     35      1     126.806242045100     484.492885493347 
    32     29    131      1     116.547586263400     445.222086509286 
    32     33     34      1     116.547586263400     445.222086509286 
    32     33    134      1     116.547586263400     445.222086509286 
    32     33    135      1     116.547586263400     445.222086509286 
    33     32    132      1     116.547586263400     445.222086509286 
    33     32    133      1     116.547586263400     445.222086509286 
    33     34    136      1     116.547586263400     445.222086509286 
    33     34    137      1     116.547586263400     445.222086509286 
    34     33    134      1     116.547586263400     445.222086509286 
    34     33    135      1     116.547586263400     445.222086509286 
    35     36     37      1     116.547586263400     445.222086509286 
    35     36     39      1     116.547586263400     445.222086509286 
    35     36    139      1     116.547586263400     445.222086509286 
    36     35    138      1     115.507132767400     530.901282784327 
    36     37     38      1     126.806242045100     484.492885493347 
    36     37     43      1     126.806242045100     484.492885493347 
    36     39     40      1     116.547586263400     445.222086509286 
    36     39     41      1     116.547586263400     445.222086509286 
    36     39    140      1     116.547586263400     445.222086509286 
    37     36     39      1     116.547586263400     445.222086509286 
    37     36    139      1     116.547586263400     445.222086509286 
    37     43     44      1     117.346557051400     463.769802376852 
    37     43    149      1     115.507132767400     530.901282784327 
    38     37     43      1     126.806242045100     484.492885493347 
    39     36    139      1     116.547586263400     445.222086509286 
    39     40     42      1     116.547586263400     445.222086509286 
    39     40    141      1     116.547586263400     445.222086509286 
    39     40    142      1     116.547586263400     445.222086509286 
    39     41    143      1     116.547586263400     445.222086509286 
    39     41    144      1     116.547586263400     445.222086509286 
    39     41    145      1     116.547586263400     445.222086509286 
    40     39     41      1     116.547586263400     445.222086509286 
    40     39    140      1     116.547586263400     445.222086509286 
    40     42    146      1     116.547586263400     445.222086509286 
    40     42    147      1     116.547586263400     445.222086509286 
    40     42    148      1     116.547586263400     445.222086509286 
    41     39    140      1     116.547586263400     445.222086509286 
    42     40    141      1     116.547586263400     445.222086509286 
    42     40    142      1     116.547586263400     445.222086509286 
    43     44     45      1     116.547586263400     445.222086509286 
    43     44     47      1     116.547586263400     445.222086509286 
    43     44    150      1     116.547586263400     445.222086509286 
    44     43    149      1     115.507132767400     530.901282784327 
    44     45     46      1     116.547586263400     445.222086509286 
    44     45     59      1     116.547586263400     445.222086509286 
    44     45    151      1     116.547586263400     445.222086509286 
    44     47     48      1     116.547586263400     445.222086509286 
    44     47    153      1     116.547586263400     445.222086509286 
    44     47    154      1     116.547586263400     445.222086509286 
    45     44     47      1     116.547586263400     445.222086509286 
    45     44    150      1     116.547586263400     445.222086509286 
    45     46    152      1     110.353880618100     544.678275491328 
    45     59     60      1     114.841459999400     410.165804547735 
    45     59    165      1     110.920219630000     791.028080064996 
    46     45     59      1     116.547586263400     445.222086509286 
    46     45    151      1     116.547586263400     445.222086509286 
    47     44    150      1     116.547586263400     445.222086509286 
    47     48     49      1     116.547586263400     445.222086509286 
    47     48     50      1     116.547586263400     445.222086509286 
    47     48    155      1     116.547586263400     445.222086509286 
    48     47    153      1     116.547586263400     445.222086509286 
    48     47    154      1     116.547586263400     445.222086509286 
    48     49     51      1     116.547586263400     445.222086509286 
    48     49    156      1     116.547586263400     445.222086509286 
    48     49    157      1     116.547586263400     445.222086509286 
    48     50     52      1     116.547586263400     445.222086509286 
    48     50    158      1     116.547586263400     445.222086509286 
    48     50    159      1     116.547586263400     445.222086509286 
    49     48     50      1     116.547586263400     445.222086509286 
    49     48    155      1     116.547586263400     445.222086509286 
    49     51     53      1     116.547586263400     445.222086509286 
    49     51    160      1     116.547586263400     445.222086509286 
    49     51    161      1     116.547586263400     445.222086509286 
    50     48    155      1     116.547586263400     445.222086509286 
    50     52     53      1     116.547586263400     445.222086509286 
    50     52    162      1     116.547586263400     445.222086509286 
    50     52    163      1     116.547586263400     445.222086509286 
    51     49    156      1     116.547586263400     445.222086509286 
    51     49    157      1     116.547586263400     445.222086509286 
    51     53     52      1     116.547586263400     445.222086509286 
    51     53     54      1     116.547586263400     445.222086509286 
    51     53    164      1     116.547586263400     445.222086509286 
    52     50    158      1     116.547586263400     445.222086509286 
    52     50    159      1     116.547586263400     445.222086509286 
    52     53     54      1     116.547586263400     445.222086509286 
    52     53    164      1     116.547586263400     445.222086509286 
    53     51    160      1     116.547586263400     445.222086509286 
    53     51    161      1     116.547586263400     445.222086509286 
    53     52    162      1     116.547586263400     445.222086509286 
    53     52    163      1     116.547586263400     445.222086509286 
    53     54     55      1     110.353880618100     544.678275491328 
    54     53    164      1     116.547586263400     445.222086509286 
    54     55     56      1     157.379318598500     542.862349134858 
    54     55     57      1     157.379318598500     542.862349134858 
    54     55     58      1     157.379318598500     542.862349134858 
    56     55     57      1     157.379318598500     542.862349134858 
    56     55     58      1     157.379318598500     542.862349134858 
    57     55     58      1     157.379318598500     542.862349134858 
    59     45    151      1     116.547586263400     445.222086509286 
    59     60     61      1     116.547586263400     445.222086509286 
    59     60     63      1     116.547586263400     445.222086509286 
    59     60    166      1     116.547586263400     445.222086509286 
    60     59    165      1     110.920219630000     791.028080064996 
    60     61     62      1     126.806242045100     484.492885493347 
    60     61     68      1     126.806242045100     484.492885493347 
    60     63     64      1     116.547586263400     445.222086509286 
    60     63    167      1     116.547586263400     445.222086509286 
    60     63    168      1     116.547586263400     445.222086509286 
    61     60     63      1     116.547586263400     445.222086509286 
    61     60    166      1     116.547586263400     445.222086509286 
    61     68     69      1     117.346557051400     463.769802376852 
    61     68    171      1     115.507132767400     530.901282784327 
    62     61     68      1     126.806242045100     484.492885493347 
    63     60    166      1     116.547586263400     445.222086509286 
    63     64     65      1     116.547586263400     445.222086509286 
    63     64    169      1     116.547586263400     445.222086509286 
    63     64    170      1     116.547586263400     445.222086509286 
    64     63    167      1     116.547586263400     445.222086509286 
    64     63    168      1     116.547586263400     445.222086509286 
    64     65     66      1     126.806242045100     484.492885493347 
    64     65     67      1     126.806242045100     484.492885493347 
    65     64    169      1     116.547586263400     445.222086509286 
    65     64    170      1     116.547586263400     445.222086509286 
    66     65     67      1     127.469141619100    1685.413543333009 
    68     69     70      1     116.547586263400     445.222086509286 
    68     69     72      1     116.547586263400     445.222086509286 
    68     69    172      1     116.547586263400     445.222086509286 
    69     68    171      1     115.507132767400     530.901282784327 
    69     70     71      1     126.806242045100     484.492885493347 
    69     70     77      1     126.806242045100     484.492885493347 
    69     72     73      1     116.547586263400     445.222086509286 
    69     72    173      1     116.547586263400     445.222086509286 
    69     72    174      1     116.547586263400     445.222086509286 
    70     69     72      1     116.547586263400     445.222086509286 
    70     69    172      1     116.547586263400     445.222086509286 
    70     77     78      1     117.346557051400     463.769802376852 
    70     77    179      1     115.507132767400     530.901282784327 
    71     70     77      1     126.806242045100     484.492885493347 
    72     69    172      1     116.547586263400     445.222086509286 
    72     73     74      1     116.547586263400     445.222086509286 
    72     73    175      1     116.547586263400     445.222086509286 
    72     73    176      1     116.547586263400     445.222086509286 
    73     72    173      1     116.547586263400     445.222086509286 
    73     72    174      1     116.547586263400     445.222086509286 
    73     74     75      1     126.806242045100     484.492885493347 
    73     74     76      1     126.806242045100     484.492885493347 
    74     73    175      1     116.547586263400     445.222086509286 
    74     73    176      1     116.547586263400     445.222086509286 
    74     75    177      1     115.507132767400     530.901282784327 
    74     75    178      1     115.507132767400     530.901282784327 
    75     74     76      1     126.806242045100     484.492885493347 
    77     78     79      1     116.547586263400     445.222086509286 
    77     78     81      1     116.547586263400     445.222086509286 
    77     78    180      1     116.547586263400     445.222086509286 
    78     77    179      1     115.507132767400     530.901282784327 
    78     79     80      1     126.806242045100     484.492885493347 
    78     79     91      1     126.806242045100     484.492885493347 
    78     81     82      1     116.547586263400     445.222086509286 
    78     81    181      1     116.547586263400     445.222086509286 
    78     81    182      1     116.547586263400     445.222086509286 
    79     78     81      1     116.547586263400     445.222086509286 
    79     78    180      1     116.547586263400     445.222086509286 
    79     91     92      1     117.346557051400     463.769802376852 
    79     91    189      1     115.507132767400     530.901282784327 
    80     79     91      1     126.806242045100     484.492885493347 
    81     78    180      1     116.547586263400     445.222086509286 
    81     82     83      1     129.802730460800     331.608082005356 
    81     82     84      1     129.802730460800     331.608082005356 
    82     81    181      1     116.547586263400     445.222086509286 
    82     81    182      1     116.547586263400     445.222086509286 
    82     83     87      1     126.806242045100     484.492885493347 
    82     83    183      1     129.802730460800     331.608082005356 
    82     84     85      1     126.806242045100     484.492885493347 
    82     84     86      1     138.318436837300     119.851700839432 
    83     82     84      1     126.806242045100     484.492885493347 
    83     87     85      1     117.346557051400     463.769802376852 
    83     87    185      1     115.507132767400     530.901282784327 
    84     85     87      1     126.806242045100     484.492885493347 
    84     85     88      1     126.806242045100     484.492885493347 
    84     86     89      1     126.806242045100     484.492885493347 
    84     86    184      1     129.183592992600     285.070774532144 
    85     84     86      1     126.806242045100     484.492885493347 
    85     87    185      1     115.507132767400     530.901282784327 
    85     88     90      1     126.806242045100     484.492885493347 
    85     88    186      1     129.183592992600     285.070774532144 
    86     89     90      1     126.806242045100     484.492885493347 
    86     89    187      1     129.183592992600     285.070774532144 
    87     83    183      1     129.802730460800     331.608082005356 
    87     85     88      1     138.318436837300     119.851700839432 
    88     90     89      1     126.806242045100     484.492885493347 
    88     90    188      1     129.183592992600     285.070774532144 
    89     86    184      1     129.183592992600     285.070774532144 
    89     90    188      1     129.183592992600     285.070774532144 
    90     88    186      1     129.183592992600     285.070774532144 
    90     89    187      1     129.183592992600     285.070774532144 
    91     92     93      1     116.547586263400     445.222086509286 
    91     92    190      1     116.547586263400     445.222086509286 
    91     92    191      1     116.547586263400     445.222086509286 
    92     91    189      1     115.507132767400     530.901282784327 
    92     93     94      1     126.806242045100     484.492885493347 
    92     93     95      1     126.806242045100     484.492885493347 
    93     92    190      1     116.547586263400     445.222086509286 
    93     92    191      1     116.547586263400     445.222086509286 
    93     95     96      1     117.346557051400     463.769802376852 
    93     95    192      1     115.507132767400     530.901282784327 
    94     93     95      1     126.806242045100     484.492885493347 
    95     96     97      1     116.547586263400     445.222086509286 
    95     96     99      1     116.547586263400     445.222086509286 
    95     96    193      1     116.547586263400     445.222086509286 
    96     95    192      1     115.507132767400     530.901282784327 
    96     97     98      1     126.806242045100     484.492885493347 
    96     97    112      1     126.806242045100     484.492885493347 
    96     99    100      1     116.547586263400     445.222086509286 
    96     99    194      1     116.547586263400     445.222086509286 
    96     99    195      1     116.547586263400     445.222086509286 
    97     96     99      1     116.547586263400     445.222086509286 
    97     96    193      1     116.547586263400     445.222086509286 
    97    112    113      1     117.346557051400     463.769802376852 
    97    112    205      1     115.507132767400     530.901282784327 
    98     97    112      1     126.806242045100     484.492885493347 
    99     96    193      1     116.547586263400     445.222086509286 
    99    100    101      1     129.802730460800     331.608082005356 
    99    100    102      1     129.802730460800     331.608082005356 
   100     99    194      1     116.547586263400     445.222086509286 
   100     99    195      1     116.547586263400     445.222086509286 
   100    101    105      1     126.806242045100     484.492885493347 
   100    101    196      1     129.802730460800     331.608082005356 
   100    102    103      1     126.806242045100     484.492885493347 
   100    102    104      1     138.318436837300     119.851700839432 
   101    100    102      1     126.806242045100     484.492885493347 
   101    105    103      1     117.346557051400     463.769802376852 
   101    105    198      1     115.507132767400     530.901282784327 
   102    103    105      1     126.806242045100     484.492885493347 
   102    103    106      1     126.806242045100     484.492885493347 
   102    104    107      1     126.806242045100     484.492885493347 
   102    104    197      1     129.183592992600     285.070774532144 
   103    102    104      1     126.806242045100     484.492885493347 
   103    105    198      1     115.507132767400     530.901282784327 
   103    106    108      1     126.806242045100     484.492885493347 
   103    106    199      1     129.183592992600     285.070774532144 
   104    107    108      1     126.806242045100     484.492885493347 
   104    107    200      1     129.183592992600     285.070774532144 
   105    101    196      1     129.802730460800     331.608082005356 
   105    103    106      1     138.318436837300     119.851700839432 
   106    108    107      1     126.806242045100     484.492885493347 
   106    108    201      1     129.183592992600     285.070774532144 
   107    104    197      1     129.183592992600     285.070774532144 
   107    108    201      1     129.183592992600     285.070774532144 
   108    106    199      1     129.183592992600     285.070774532144 
   108    107    200      1     129.183592992600     285.070774532144 
   109      1    114      1     115.507132767400     530.901282784327 
   109    111    202      1     116.547586263400     445.222086509286 
   109    111    203      1     116.547586263400     445.222086509286 
   109    111    204      1     116.547586263400     445.222086509286 
   110    109    111      1     126.806242045100     484.492885493347 
   112    113    206      1     116.547586263400     445.222086509286 
   112    113    207      1     116.547586263400     445.222086509286 
   112    113    208      1     116.547586263400     445.222086509286 
   113    112    205      1     115.507132767400     530.901282784327 
   116      5    117      1     115.603099953300     408.161690475075 
   120     13    121      1     115.603099953300     408.161690475075 
   127     23    128      1     115.603099953300     408.161690475075 
   129     24    130      1     115.603099953300     408.161690475075 
   132     32    133      1     115.603099953300     408.161690475075 
   134     33    135      1     115.603099953300     408.161690475075 
   136     34    137      1     115.603099953300     408.161690475075 
   141     40    142      1     115.603099953300     408.161690475075 
   143     41    144      1     115.603099953300     408.161690475075 
   143     41    145      1     115.603099953300     408.161690475075 
   144     41    145      1     115.603099953300     408.161690475075 
   146     42    147      1     115.603099953300     408.161690475075 
   146     42    148      1     115.603099953300     408.161690475075 
   147     42    148      1     115.603099953300     408.161690475075 
   153     47    154      1     115.603099953300     408.161690475075 
   156     49    157      1     115.603099953300     408.161690475075 
   158     50    159      1     115.603099953300     408.161690475075 
   160     51    161      1     115.603099953300     408.161690475075 
   162     52    163      1     115.603099953300     408.161690475075 
   167     63    168      1     115.603099953300     408.161690475075 
   169     64    170      1     115.603099953300     408.161690475075 
   173     72    174      1     115.603099953300     408.161690475075 
   175     73    176      1     115.603099953300     408.161690475075 
   177     75    178      1     115.507132767400     530.901282784327 
   181     81    182      1     115.603099953300     408.161690475075 
   190     92    191      1     115.603099953300     408.161690475075 
   194     99    195      1     115.603099953300     408.161690475075 
   202    111    203      1     115.603099953300     408.161690475075 
   202    111    204      1     115.603099953300     408.161690475075 
   203    111    204      1     115.603099953300     408.161690475075 
   206    113    207      1     115.603099953300     408.161690475075 
   206    113    208      1     115.603099953300     408.161690475075 
   207    113    208      1     115.603099953300     408.161690475075 

[ dihedrals ]
;ai    aj   ak   al   funct phi  k
     1     2     3     4     1      0.000000000000     -1.549482649691                 2
     1     2     3     9     1    180.000000000000     -1.556339668180                 1
     1     2     3     9     1    180.000000000000      1.682859881397                 2
     1     2     5     6     1      0.000000000000      0.483407861024                 3
     1     2     5   116     1      0.000000000000      0.483407861024                 3
     1     2     5   117     1      0.000000000000      0.483407861024                 3
     1   109   111   202     1      0.000000000000      0.111501038139                 3
     1   109   111   203     1      0.000000000000      0.111501038139                 3
     1   109   111   204     1      0.000000000000      0.111501038139                 3
     2     1   109   110     1    180.000000000000     12.978553656010                 2
     2     1   109   110     1      0.000000000000     -1.779100933344                 1
     2     1   109   111     1    180.000000000000      7.569054279773                 2
     2     1   109   111     1      0.000000000000     -0.201513062842                 1
     2     3     9    10     1    180.000000000000      7.569054279773                 2
     2     3     9    10     1      0.000000000000     -0.201513062842                 1
     2     3     9   118     1    180.000000000000      7.569054279773                 2
     2     3     9   118     1      0.000000000000     -0.201513062842                 1
     2     5     6     7     1      0.000000000000     -1.549482649691                 2
     2     5     6     8     1      0.000000000000      0.111501038139                 3
     3     2     1   109     1    180.000000000000     -2.883499339083                 2
     3     2     1   109     1      0.000000000000      1.141330947302                 1
     3     2     1   114     1      0.000000000000      0.762485897686                 2
     3     2     1   114     1      0.000000000000      0.124362804952                 3
     3     2     5     6     1      0.000000000000      0.483407861024                 3
     3     2     5   116     1      0.000000000000      0.483407861024                 3
     3     2     5   117     1      0.000000000000      0.483407861024                 3
     3     9    10    11     1    180.000000000000     -2.883499339083                 2
     3     9    10    11     1      0.000000000000      1.141330947302                 1
     3     9    10    13     1    180.000000000000     -0.622862944840                 4
     3     9    10    13     1    180.000000000000     -0.514769632165                 3
     3     9    10    13     1      0.000000000000      1.229801223351                 2
     3     9    10    13     1      0.000000000000     -1.265294746367                 1
     3     9    10   119     1      0.000000000000      0.762485897686                 2
     3     9    10   119     1      0.000000000000      0.124362804952                 3
     4     3     2     5     1      0.000000000000     -1.549482649691                 2
     4     3     2   115     1      0.000000000000      1.900237470334                 1
     4     3     2   115     1      0.000000000000      0.623294863345                 2
     4     3     2   115     1    180.000000000000      0.123847541423                 3
     4     3     9    10     1    180.000000000000     12.978553656010                 2
     4     3     9    10     1      0.000000000000     -1.779100933344                 1
     4     3     9   118     1    180.000000000000      9.825603686166                 2
     4     3     9   118     1      0.000000000000      5.255757435828                 1
     5     2     1   109     1    180.000000000000     -0.622862944840                 4
     5     2     1   109     1    180.000000000000     -0.514769632165                 3
     5     2     1   109     1      0.000000000000      1.229801223351                 2
     5     2     1   109     1      0.000000000000     -1.265294746367                 1
     5     2     1   114     1      0.000000000000      0.762485897686                 2
     5     2     1   114     1      0.000000000000      0.124362804952                 3
     5     2     3     9     1      0.000000000000     -0.190866664426                 4
     5     2     3     9     1      0.000000000000      0.642700485649                 2
     6     5     2   115     1      0.000000000000      0.483407861024                 3
     7     6     5   116     1      0.000000000000      1.900237470334                 1
     7     6     5   116     1      0.000000000000      0.623294863345                 2
     7     6     5   116     1    180.000000000000      0.123847541423                 3
     7     6     5   117     1      0.000000000000      1.900237470334                 1
     7     6     5   117     1      0.000000000000      0.623294863345                 2
     7     6     5   117     1    180.000000000000      0.123847541423                 3
     8     6     5   116     1      0.000000000000      0.111501038139                 3
     8     6     5   117     1      0.000000000000      0.111501038139                 3
     9     3     2   115     1      0.000000000000      0.111501038139                 3
     9    10    11    12     1      0.000000000000     -1.549482649691                 2
     9    10    11    19     1    180.000000000000     -1.556339668180                 1
     9    10    11    19     1    180.000000000000      1.682859881397                 2
     9    10    13    14     1      0.000000000000      0.483407861024                 3
     9    10    13   120     1      0.000000000000      0.483407861024                 3
     9    10    13   121     1      0.000000000000      0.483407861024                 3
    10    11    19    20     1    180.000000000000      7.569054279773                 2
    10    11    19    20     1      0.000000000000     -0.201513062842                 1
    10    11    19   125     1    180.000000000000      7.569054279773                 2
    10    11    19   125     1      0.000000000000     -0.201513062842                 1
    10    13    14    15     1      0.000000000000     -1.549482649691                 2
    10    13    14    16     1      0.000000000000      0.111501038139                 3
    11    10     9   118     1      0.000000000000      0.762485897686                 2
    11    10     9   118     1      0.000000000000      0.124362804952                 3
    11    10    13    14     1      0.000000000000      0.483407861024                 3
    11    10    13   120     1      0.000000000000      0.483407861024                 3
    11    10    13   121     1      0.000000000000      0.483407861024                 3
    11    19    20    21     1    180.000000000000     -2.883499339083                 2
    11    19    20    21     1      0.000000000000      1.141330947302                 1
    11    19    20    23     1    180.000000000000     -0.622862944840                 4
    11    19    20    23     1    180.000000000000     -0.514769632165                 3
    11    19    20    23     1      0.000000000000      1.229801223351                 2
    11    19    20    23     1      0.000000000000     -1.265294746367                 1
    11    19    20   126     1      0.000000000000      0.762485897686                 2
    11    19    20   126     1      0.000000000000      0.124362804952                 3
    12    11    10    13     1      0.000000000000     -1.549482649691                 2
    12    11    10   119     1      0.000000000000      1.900237470334                 1
    12    11    10   119     1      0.000000000000      0.623294863345                 2
    12    11    10   119     1    180.000000000000      0.123847541423                 3
    12    11    19    20     1    180.000000000000     12.978553656010                 2
    12    11    19    20     1      0.000000000000     -1.779100933344                 1
    12    11    19   125     1    180.000000000000      9.825603686166                 2
    12    11    19   125     1      0.000000000000      5.255757435828                 1
    13    10     9   118     1      0.000000000000      0.762485897686                 2
    13    10     9   118     1      0.000000000000      0.124362804952                 3
    13    10    11    19     1      0.000000000000     -0.190866664426                 4
    13    10    11    19     1      0.000000000000      0.642700485649                 2
    13    14    15    18     1    180.000000000000     22.153623103850                 2
    13    14    15   122     1    180.000000000000     22.153623103850                 2
    13    14    16    17     1    180.000000000000      7.375631434631                 2
    14    13    10   119     1      0.000000000000      0.483407861024                 3
    14    15    18    17     1    180.000000000000      6.596778357662                 2
    14    15    18   124     1    180.000000000000      6.596778357662                 2
    14    16    17    18     1    180.000000000000     28.186614206504                 2
    14    16    17   123     1    180.000000000000     28.186614206504                 2
    15    14    13   120     1    180.000000000000      1.239420536339                 3
    15    14    13   120     1      0.000000000000      0.031108134751                 1
    15    14    13   121     1    180.000000000000      1.239420536339                 3
    15    14    13   121     1      0.000000000000      0.031108134751                 1
    15    14    16    17     1    180.000000000000      6.487356510017                 2
    15    18    17    16     1    180.000000000000      6.596778357662                 2
    15    18    17   123     1    180.000000000000      6.596778357662                 2
    16    14    13   120     1      0.000000000000      0.111501038139                 3
    16    14    13   121     1      0.000000000000      0.111501038139                 3
    16    14    15    18     1    180.000000000000     22.153623103850                 2
    16    14    15   122     1    180.000000000000     22.153623103850                 2
    16    17    18   124     1    180.000000000000      6.596778357662                 2
    17    18    15   122     1    180.000000000000      6.596778357662                 2
    19    11    10   119     1      0.000000000000      0.111501038139                 3
    19    20    21    22     1      0.000000000000     -1.549482649691                 2
    19    20    21    28     1    180.000000000000     -1.556339668180                 1
    19    20    21    28     1    180.000000000000      1.682859881397                 2
    19    20    23    24     1      0.000000000000      0.483407861024                 3
    19    20    23   127     1      0.000000000000      0.483407861024                 3
    19    20    23   128     1      0.000000000000      0.483407861024                 3
    20    21    28    29     1    180.000000000000      7.569054279773                 2
    20    21    28    29     1      0.000000000000     -0.201513062842                 1
    20    21    28    34     1    180.000000000000      7.569054279773                 2
    20    21    28    34     1      0.000000000000     -0.201513062842                 1
    20    23    24    25     1      0.000000000000      0.483407861024                 3
    20    23    24   129     1      0.000000000000      0.435413753811                 3
    20    23    24   130     1      0.000000000000      0.435413753811                 3
    21    20    19   125     1      0.000000000000      0.762485897686                 2
    21    20    19   125     1      0.000000000000      0.124362804952                 3
    21    20    23    24     1      0.000000000000      0.483407861024                 3
    21    20    23   127     1      0.000000000000      0.483407861024                 3
    21    20    23   128     1      0.000000000000      0.483407861024                 3
    21    28    29    30     1    180.000000000000     -2.883499339083                 2
    21    28    29    30     1      0.000000000000      1.141330947302                 1
    21    28    29    32     1    180.000000000000     -0.622862944840                 4
    21    28    29    32     1    180.000000000000     -0.514769632165                 3
    21    28    29    32     1      0.000000000000      1.229801223351                 2
    21    28    29    32     1      0.000000000000     -1.265294746367                 1
    21    28    29   131     1      0.000000000000      0.762485897686                 2
    21    28    29   131     1      0.000000000000      0.124362804952                 3
    21    28    34    33     1    180.000000000000     -0.622862944840                 4
    21    28    34    33     1    180.000000000000     -0.514769632165                 3
    21    28    34    33     1      0.000000000000      1.229801223351                 2
    21    28    34    33     1      0.000000000000     -1.265294746367                 1
    21    28    34   136     1      0.000000000000      0.762485897686                 2
    21    28    34   136     1      0.000000000000      0.124362804952                 3
    21    28    34   137     1      0.000000000000      0.762485897686                 2
    21    28    34   137     1      0.000000000000      0.124362804952                 3
    22    21    20    23     1      0.000000000000     -1.549482649691                 2
    22    21    20   126     1      0.000000000000      1.900237470334                 1
    22    21    20   126     1      0.000000000000      0.623294863345                 2
    22    21    20   126     1    180.000000000000      0.123847541423                 3
    22    21    28    29     1    180.000000000000     12.978553656010                 2
    22    21    28    29     1      0.000000000000     -1.779100933344                 1
    22    21    28    34     1    180.000000000000     12.978553656010                 2
    22    21    28    34     1      0.000000000000     -1.779100933344                 1
    23    20    19   125     1      0.000000000000      0.762485897686                 2
    23    20    19   125     1      0.000000000000      0.124362804952                 3
    23    20    21    28     1      0.000000000000     -0.190866664426                 4
    23    20    21    28     1      0.000000000000      0.642700485649                 2
    23    24    25    26     1      0.000000000000     -1.549482649691                 2
    23    24    25    27     1      0.000000000000      0.111501038139                 3
    24    23    20   126     1      0.000000000000      0.435413753811                 3
    25    24    23   127     1      0.000000000000      0.483407861024                 3
    25    24    23   128     1      0.000000000000      0.483407861024                 3
    26    25    24   129     1      0.000000000000      1.900237470334                 1
    26    25    24   129     1      0.000000000000      0.623294863345                 2
    26    25    24   129     1    180.000000000000      0.123847541423                 3
    26    25    24   130     1      0.000000000000      1.900237470334                 1
    26    25    24   130     1      0.000000000000      0.623294863345                 2
    26    25    24   130     1    180.000000000000      0.123847541423                 3
    27    25    24   129     1      0.000000000000      0.111501038139                 3
    27    25    24   130     1      0.000000000000      0.111501038139                 3
    28    21    20   126     1      0.000000000000      0.111501038139                 3
    28    29    30    31     1      0.000000000000     -1.549482649691                 2
    28    29    30    35     1    180.000000000000     -1.556339668180                 1
    28    29    30    35     1    180.000000000000      1.682859881397                 2
    28    29    32    33     1      0.000000000000      0.483407861024                 3
    28    29    32   132     1      0.000000000000      0.483407861024                 3
    28    29    32   133     1      0.000000000000      0.483407861024                 3
    28    34    33    32     1      0.000000000000      0.483407861024                 3
    28    34    33   134     1      0.000000000000      0.483407861024                 3
    28    34    33   135     1      0.000000000000      0.483407861024                 3
    29    28    34    33     1      0.000000000000      0.762485897686                 2
    29    28    34    33     1      0.000000000000      0.124362804952                 3
    29    28    34   136     1      0.000000000000      0.762485897686                 2
    29    28    34   136     1      0.000000000000      0.124362804952                 3
    29    28    34   137     1      0.000000000000      0.762485897686                 2
    29    28    34   137     1      0.000000000000      0.124362804952                 3
    29    30    35    36     1    180.000000000000      7.569054279773                 2
    29    30    35    36     1      0.000000000000     -0.201513062842                 1
    29    30    35   138     1    180.000000000000      7.569054279773                 2
    29    30    35   138     1      0.000000000000     -0.201513062842                 1
    29    32    33    34     1      0.000000000000      0.385926890019                 3
    29    32    33    34     1    180.000000000000      1.322117189743                 2
    29    32    33    34     1    180.000000000000      1.358878183989                 1
    29    32    33   134     1      0.000000000000      0.435413753811                 3
    29    32    33   135     1      0.000000000000      0.435413753811                 3
    30    29    28    34     1      0.000000000000      0.762485897686                 2
    30    29    28    34     1      0.000000000000      0.124362804952                 3
    30    29    32    33     1      0.000000000000      0.483407861024                 3
    30    29    32   132     1      0.000000000000      0.483407861024                 3
    30    29    32   133     1      0.000000000000      0.483407861024                 3
    30    35    36    37     1    180.000000000000     -2.883499339083                 2
    30    35    36    37     1      0.000000000000      1.141330947302                 1
    30    35    36    39     1    180.000000000000     -0.622862944840                 4
    30    35    36    39     1    180.000000000000     -0.514769632165                 3
    30    35    36    39     1      0.000000000000      1.229801223351                 2
    30    35    36    39     1      0.000000000000     -1.265294746367                 1
    30    35    36   139     1      0.000000000000      0.762485897686                 2
    30    35    36   139     1      0.000000000000      0.124362804952                 3
    31    30    29    32     1      0.000000000000     -1.549482649691                 2
    31    30    29   131     1      0.000000000000      1.900237470334                 1
    31    30    29   131     1      0.000000000000      0.623294863345                 2
    31    30    29   131     1    180.000000000000      0.123847541423                 3
    31    30    35    36     1    180.000000000000     12.978553656010                 2
    31    30    35    36     1      0.000000000000     -1.779100933344                 1
    31    30    35   138     1    180.000000000000      9.825603686166                 2
    31    30    35   138     1      0.000000000000      5.255757435828                 1
    32    29    28    34     1      0.000000000000      0.762485897686                 2
    32    29    28    34     1      0.000000000000      0.124362804952                 3
    32    29    30    35     1      0.000000000000     -0.190866664426                 4
    32    29    30    35     1      0.000000000000      0.642700485649                 2
    32    33    34   136     1      0.000000000000      0.435413753811                 3
    32    33    34   137     1      0.000000000000      0.435413753811                 3
    33    32    29   131     1      0.000000000000      0.435413753811                 3
    34    28    29   131     1      0.000000000000      0.762485897686                 2
    34    28    29   131     1      0.000000000000      0.124362804952                 3
    34    33    32   132     1      0.000000000000      0.435413753811                 3
    34    33    32   133     1      0.000000000000      0.435413753811                 3
    35    30    29   131     1      0.000000000000      0.111501038139                 3
    35    36    37    38     1      0.000000000000     -1.549482649691                 2
    35    36    37    43     1    180.000000000000     -1.556339668180                 1
    35    36    37    43     1    180.000000000000      1.682859881397                 2
    35    36    39    40     1      0.000000000000      0.483407861024                 3
    35    36    39    41     1      0.000000000000      0.483407861024                 3
    35    36    39   140     1      0.000000000000      0.483407861024                 3
    36    37    43    44     1    180.000000000000      7.569054279773                 2
    36    37    43    44     1      0.000000000000     -0.201513062842                 1
    36    37    43   149     1    180.000000000000      7.569054279773                 2
    36    37    43   149     1      0.000000000000     -0.201513062842                 1
    36    39    40    42     1      0.000000000000      0.385926890019                 3
    36    39    40    42     1    180.000000000000      1.322117189743                 2
    36    39    40    42     1    180.000000000000      1.358878183989                 1
    36    39    40   141     1      0.000000000000      0.435413753811                 3
    36    39    40   142     1      0.000000000000      0.435413753811                 3
    36    39    41   143     1      0.000000000000      0.435413753811                 3
    36    39    41   144     1      0.000000000000      0.435413753811                 3
    36    39    41   145     1      0.000000000000      0.435413753811                 3
    37    36    35   138     1      0.000000000000      0.762485897686                 2
    37    36    35   138     1      0.000000000000      0.124362804952                 3
    37    36    39    40     1      0.000000000000      0.483407861024                 3
    37    36    39    41     1      0.000000000000      0.483407861024                 3
    37    36    39   140     1      0.000000000000      0.483407861024                 3
    37    43    44    45     1    180.000000000000     -0.622862944840                 4
    37    43    44    45     1    180.000000000000     -0.514769632165                 3
    37    43    44    45     1      0.000000000000      1.229801223351                 2
    37    43    44    45     1      0.000000000000     -1.265294746367                 1
    37    43    44    47     1    180.000000000000     -0.622862944840                 4
    37    43    44    47     1    180.000000000000     -0.514769632165                 3
    37    43    44    47     1      0.000000000000      1.229801223351                 2
    37    43    44    47     1      0.000000000000     -1.265294746367                 1
    37    43    44   150     1      0.000000000000      0.762485897686                 2
    37    43    44   150     1      0.000000000000      0.124362804952                 3
    38    37    36    39     1      0.000000000000     -1.549482649691                 2
    38    37    36   139     1      0.000000000000      1.900237470334                 1
    38    37    36   139     1      0.000000000000      0.623294863345                 2
    38    37    36   139     1    180.000000000000      0.123847541423                 3
    38    37    43    44     1    180.000000000000     12.978553656010                 2
    38    37    43    44     1      0.000000000000     -1.779100933344                 1
    38    37    43   149     1    180.000000000000      9.825603686166                 2
    38    37    43   149     1      0.000000000000      5.255757435828                 1
    39    36    35   138     1      0.000000000000      0.762485897686                 2
    39    36    35   138     1      0.000000000000      0.124362804952                 3
    39    36    37    43     1      0.000000000000     -0.190866664426                 4
    39    36    37    43     1      0.000000000000      0.642700485649                 2
    39    40    42   146     1      0.000000000000      0.435413753811                 3
    39    40    42   147     1      0.000000000000      0.435413753811                 3
    39    40    42   148     1      0.000000000000      0.435413753811                 3
    40    39    36   139     1      0.000000000000      0.435413753811                 3
    40    39    41   143     1      0.000000000000      0.435413753811                 3
    40    39    41   144     1      0.000000000000      0.435413753811                 3
    40    39    41   145     1      0.000000000000      0.435413753811                 3
    41    39    36   139     1      0.000000000000      0.435413753811                 3
    41    39    40    42     1      0.000000000000      0.385926890019                 3
    41    39    40    42     1    180.000000000000      1.322117189743                 2
    41    39    40    42     1    180.000000000000      1.358878183989                 1
    41    39    40   141     1      0.000000000000      0.435413753811                 3
    41    39    40   142     1      0.000000000000      0.435413753811                 3
    42    40    39   140     1      0.000000000000      0.435413753811                 3
    43    37    36   139     1      0.000000000000      0.111501038139                 3
    43    44    45    46     1      0.000000000000      0.483407861024                 3
    43    44    45    59     1      0.000000000000      0.483407861024                 3
    43    44    45   151     1      0.000000000000      0.483407861024                 3
    43    44    47    48     1      0.000000000000      0.483407861024                 3
    43    44    47   153     1      0.000000000000      0.483407861024                 3
    43    44    47   154     1      0.000000000000      0.483407861024                 3
    44    45    46   152     1      0.000000000000      1.441547891256                 3
    44    45    46   152     1      0.000000000000      0.570930386590                 1
    44    45    59    60     1      0.000000000000      1.176075736276                 3
    44    45    59    60     1    180.000000000000      0.222779472748                 2
    44    45    59   165     1      0.000000000000      0.852142796599                 3
    44    47    48    49     1      0.000000000000      0.385926890019                 3
    44    47    48    49     1    180.000000000000      1.322117189743                 2
    44    47    48    49     1    180.000000000000      1.358878183989                 1
    44    47    48    50     1      0.000000000000      0.385926890019                 3
    44    47    48    50     1    180.000000000000      1.322117189743                 2
    44    47    48    50     1    180.000000000000      1.358878183989                 1
    44    47    48   155     1      0.000000000000      0.435413753811                 3
    45    44    43   149     1      0.000000000000      0.762485897686                 2
    45    44    43   149     1      0.000000000000      0.124362804952                 3
    45    44    47    48     1      0.000000000000      0.385926890019                 3
    45    44    47    48     1    180.000000000000      1.322117189743                 2
    45    44    47    48     1    180.000000000000      1.358878183989                 1
    45    44    47   153     1      0.000000000000      0.435413753811                 3
    45    44    47   154     1      0.000000000000      0.435413753811                 3
    45    59    60    61     1      0.000000000000      0.852142796599                 3
    45    59    60    63     1      0.000000000000      1.176075736276                 3
    45    59    60    63     1    180.000000000000      0.222779472748                 2
    45    59    60   166     1      0.000000000000      0.852142796599                 3
    46    45    44    47     1      0.000000000000      0.483407861024                 3
    46    45    44   150     1      0.000000000000      0.466735938990                 3
    46    45    44   150     1      0.000000000000      1.436153909162                 1
    46    45    59    60     1      0.000000000000      0.852142796599                 3
    46    45    59   165     1      0.000000000000      0.852142796599                 3
    47    44    43   149     1      0.000000000000      0.762485897686                 2
    47    44    43   149     1      0.000000000000      0.124362804952                 3
    47    44    45    59     1      0.000000000000      0.483407861024                 3
    47    44    45   151     1      0.000000000000      0.435413753811                 3
    47    48    49    51     1      0.000000000000      0.385926890019                 3
    47    48    49    51     1    180.000000000000      1.322117189743                 2
    47    48    49    51     1    180.000000000000      1.358878183989                 1
    47    48    49   156     1      0.000000000000      0.435413753811                 3
    47    48    49   157     1      0.000000000000      0.435413753811                 3
    47    48    50    52     1      0.000000000000      0.385926890019                 3
    47    48    50    52     1    180.000000000000      1.322117189743                 2
    47    48    50    52     1    180.000000000000      1.358878183989                 1
    47    48    50   158     1      0.000000000000      0.435413753811                 3
    47    48    50   159     1      0.000000000000      0.435413753811                 3
    48    47    44   150     1      0.000000000000      0.435413753811                 3
    48    49    51    53     1      0.000000000000      0.385926890019                 3
    48    49    51    53     1    180.000000000000      1.322117189743                 2
    48    49    51    53     1    180.000000000000      1.358878183989                 1
    48    49    51   160     1      0.000000000000      0.435413753811                 3
    48    49    51   161     1      0.000000000000      0.435413753811                 3
    48    50    52    53     1      0.000000000000      0.385926890019                 3
    48    50    52    53     1    180.000000000000      1.322117189743                 2
    48    50    52    53     1    180.000000000000      1.358878183989                 1
    48    50    52   162     1      0.000000000000      0.435413753811                 3
    48    50    52   163     1      0.000000000000      0.435413753811                 3
    49    48    47   153     1      0.000000000000      0.435413753811                 3
    49    48    47   154     1      0.000000000000      0.435413753811                 3
    49    48    50    52     1      0.000000000000      0.385926890019                 3
    49    48    50    52     1    180.000000000000      1.322117189743                 2
    49    48    50    52     1    180.000000000000      1.358878183989                 1
    49    48    50   158     1      0.000000000000      0.435413753811                 3
    49    48    50   159     1      0.000000000000      0.435413753811                 3
    49    51    53    52     1      0.000000000000      0.385926890019                 3
    49    51    53    52     1    180.000000000000      1.322117189743                 2
    49    51    53    52     1    180.000000000000      1.358878183989                 1
    49    51    53    54     1      0.000000000000      0.483407861024                 3
    49    51    53   164     1      0.000000000000      0.435413753811                 3
    50    48    47   153     1      0.000000000000      0.435413753811                 3
    50    48    47   154     1      0.000000000000      0.435413753811                 3
    50    48    49    51     1      0.000000000000      0.385926890019                 3
    50    48    49    51     1    180.000000000000      1.322117189743                 2
    50    48    49    51     1    180.000000000000      1.358878183989                 1
    50    48    49   156     1      0.000000000000      0.435413753811                 3
    50    48    49   157     1      0.000000000000      0.435413753811                 3
    50    52    53    51     1      0.000000000000      0.385926890019                 3
    50    52    53    51     1    180.000000000000      1.322117189743                 2
    50    52    53    51     1    180.000000000000      1.358878183989                 1
    50    52    53    54     1      0.000000000000      0.483407861024                 3
    50    52    53   164     1      0.000000000000      0.435413753811                 3
    51    49    48   155     1      0.000000000000      0.435413753811                 3
    51    53    52   162     1      0.000000000000      0.435413753811                 3
    51    53    52   163     1      0.000000000000      0.435413753811                 3
    51    53    54    55     1      0.000000000000      0.198220506977                 3
    52    50    48   155     1      0.000000000000      0.435413753811                 3
    52    53    51   160     1      0.000000000000      0.435413753811                 3
    52    53    51   161     1      0.000000000000      0.435413753811                 3
    52    53    54    55     1      0.000000000000      0.198220506977                 3
    53    51    49   156     1      0.000000000000      0.435413753811                 3
    53    51    49   157     1      0.000000000000      0.435413753811                 3
    53    52    50   158     1      0.000000000000      0.435413753811                 3
    53    52    50   159     1      0.000000000000      0.435413753811                 3
    53    54    55    56     1      0.000000000000      2.488193532757                 3
    53    54    55    57     1      0.000000000000      2.488193532757                 3
    53    54    55    58     1      0.000000000000      2.488193532757                 3
    54    53    51   160     1      0.000000000000      0.466735938990                 3
    54    53    51   160     1      0.000000000000      1.436153909162                 1
    54    53    51   161     1      0.000000000000      0.466735938990                 3
    54    53    51   161     1      0.000000000000      1.436153909162                 1
    54    53    52   162     1      0.000000000000      0.466735938990                 3
    54    53    52   162     1      0.000000000000      1.436153909162                 1
    54    53    52   163     1      0.000000000000      0.466735938990                 3
    54    53    52   163     1      0.000000000000      1.436153909162                 1
    55    54    53   164     1      0.000000000000      0.198220506977                 3
    59    45    44   150     1      0.000000000000      0.483407861024                 3
    59    45    46   152     1      0.000000000000      1.266241646075                 3
    59    60    61    62     1      0.000000000000     -1.549482649691                 2
    59    60    61    68     1    180.000000000000     -1.556339668180                 1
    59    60    61    68     1    180.000000000000      1.682859881397                 2
    59    60    63    64     1      0.000000000000      0.483407861024                 3
    59    60    63   167     1      0.000000000000      0.483407861024                 3
    59    60    63   168     1      0.000000000000      0.483407861024                 3
    60    59    45   151     1      0.000000000000      0.852142796599                 3
    60    61    68    69     1    180.000000000000      7.569054279773                 2
    60    61    68    69     1      0.000000000000     -0.201513062842                 1
    60    61    68   171     1    180.000000000000      7.569054279773                 2
    60    61    68   171     1      0.000000000000     -0.201513062842                 1
    60    63    64    65     1      0.000000000000      0.483407861024                 3
    60    63    64   169     1      0.000000000000      0.435413753811                 3
    60    63    64   170     1      0.000000000000      0.435413753811                 3
    61    60    59   165     1      0.000000000000      0.852142796599                 3
    61    60    63    64     1      0.000000000000      0.483407861024                 3
    61    60    63   167     1      0.000000000000      0.483407861024                 3
    61    60    63   168     1      0.000000000000      0.483407861024                 3
    61    68    69    70     1    180.000000000000     -2.883499339083                 2
    61    68    69    70     1      0.000000000000      1.141330947302                 1
    61    68    69    72     1    180.000000000000     -0.622862944840                 4
    61    68    69    72     1    180.000000000000     -0.514769632165                 3
    61    68    69    72     1      0.000000000000      1.229801223351                 2
    61    68    69    72     1      0.000000000000     -1.265294746367                 1
    61    68    69   172     1      0.000000000000      0.762485897686                 2
    61    68    69   172     1      0.000000000000      0.124362804952                 3
    62    61    60    63     1      0.000000000000     -1.549482649691                 2
    62    61    60   166     1      0.000000000000      1.900237470334                 1
    62    61    60   166     1      0.000000000000      0.623294863345                 2
    62    61    60   166     1    180.000000000000      0.123847541423                 3
    62    61    68    69     1    180.000000000000     12.978553656010                 2
    62    61    68    69     1      0.000000000000     -1.779100933344                 1
    62    61    68   171     1    180.000000000000      9.825603686166                 2
    62    61    68   171     1      0.000000000000      5.255757435828                 1
    63    60    59   165     1      0.000000000000      0.852142796599                 3
    63    60    61    68     1      0.000000000000     -0.190866664426                 4
    63    60    61    68     1      0.000000000000      0.642700485649                 2
    63    64    65    66     1      0.000000000000     -1.549482649691                 2
    63    64    65    67     1      0.000000000000      0.111501038139                 3
    64    63    60   166     1      0.000000000000      0.435413753811                 3
    65    64    63   167     1      0.000000000000      0.483407861024                 3
    65    64    63   168     1      0.000000000000      0.483407861024                 3
    66    65    64   169     1      0.000000000000      1.900237470334                 1
    66    65    64   169     1      0.000000000000      0.623294863345                 2
    66    65    64   169     1    180.000000000000      0.123847541423                 3
    66    65    64   170     1      0.000000000000      1.900237470334                 1
    66    65    64   170     1      0.000000000000      0.623294863345                 2
    66    65    64   170     1    180.000000000000      0.123847541423                 3
    67    65    64   169     1      0.000000000000      0.111501038139                 3
    67    65    64   170     1      0.000000000000      0.111501038139                 3
    68    61    60   166     1      0.000000000000      0.111501038139                 3
    68    69    70    71     1      0.000000000000     -1.549482649691                 2
    68    69    70    77     1    180.000000000000     -1.556339668180                 1
    68    69    70    77     1    180.000000000000      1.682859881397                 2
    68    69    72    73     1      0.000000000000      0.483407861024                 3
    68    69    72   173     1      0.000000000000      0.483407861024                 3
    68    69    72   174     1      0.000000000000      0.483407861024                 3
    69    70    77    78     1    180.000000000000      7.569054279773                 2
    69    70    77    78     1      0.000000000000     -0.201513062842                 1
    69    70    77   179     1    180.000000000000      7.569054279773                 2
    69    70    77   179     1      0.000000000000     -0.201513062842                 1
    69    72    73    74     1      0.000000000000      0.483407861024                 3
    69    72    73   175     1      0.000000000000      0.435413753811                 3
    69    72    73   176     1      0.000000000000      0.435413753811                 3
    70    69    68   171     1      0.000000000000      0.762485897686                 2
    70    69    68   171     1      0.000000000000      0.124362804952                 3
    70    69    72    73     1      0.000000000000      0.483407861024                 3
    70    69    72   173     1      0.000000000000      0.483407861024                 3
    70    69    72   174     1      0.000000000000      0.483407861024                 3
    70    77    78    79     1    180.000000000000     -2.883499339083                 2
    70    77    78    79     1      0.000000000000      1.141330947302                 1
    70    77    78    81     1    180.000000000000     -0.622862944840                 4
    70    77    78    81     1    180.000000000000     -0.514769632165                 3
    70    77    78    81     1      0.000000000000      1.229801223351                 2
    70    77    78    81     1      0.000000000000     -1.265294746367                 1
    70    77    78   180     1      0.000000000000      0.762485897686                 2
    70    77    78   180     1      0.000000000000      0.124362804952                 3
    71    70    69    72     1      0.000000000000     -1.549482649691                 2
    71    70    69   172     1      0.000000000000      1.900237470334                 1
    71    70    69   172     1      0.000000000000      0.623294863345                 2
    71    70    69   172     1    180.000000000000      0.123847541423                 3
    71    70    77    78     1    180.000000000000     12.978553656010                 2
    71    70    77    78     1      0.000000000000     -1.779100933344                 1
    71    70    77   179     1    180.000000000000      9.825603686166                 2
    71    70    77   179     1      0.000000000000      5.255757435828                 1
    72    69    68   171     1      0.000000000000      0.762485897686                 2
    72    69    68   171     1      0.000000000000      0.124362804952                 3
    72    69    70    77     1      0.000000000000     -0.190866664426                 4
    72    69    70    77     1      0.000000000000      0.642700485649                 2
    72    73    74    75     1      0.000000000000     -0.190866664426                 4
    72    73    74    75     1      0.000000000000      0.642700485649                 2
    72    73    74    76     1      0.000000000000     -1.549482649691                 2
    73    72    69   172     1      0.000000000000      0.435413753811                 3
    73    74    75   177     1    180.000000000000      7.569054279773                 2
    73    74    75   177     1      0.000000000000     -0.201513062842                 1
    73    74    75   178     1    180.000000000000      7.569054279773                 2
    73    74    75   178     1      0.000000000000     -0.201513062842                 1
    74    73    72   173     1      0.000000000000      0.483407861024                 3
    74    73    72   174     1      0.000000000000      0.483407861024                 3
    75    74    73   175     1      0.000000000000      0.111501038139                 3
    75    74    73   176     1      0.000000000000      0.111501038139                 3
    76    74    73   175     1      0.000000000000      1.900237470334                 1
    76    74    73   175     1      0.000000000000      0.623294863345                 2
    76    74    73   175     1    180.000000000000      0.123847541423                 3
    76    74    73   176     1      0.000000000000      1.900237470334                 1
    76    74    73   176     1      0.000000000000      0.623294863345                 2
    76    74    73   176     1    180.000000000000      0.123847541423                 3
    76    74    75   177     1    180.000000000000      9.825603686166                 2
    76    74    75   177     1      0.000000000000      5.255757435828                 1
    76    74    75   178     1    180.000000000000      9.825603686166                 2
    76    74    75   178     1      0.000000000000      5.255757435828                 1
    77    70    69   172     1      0.000000000000      0.111501038139                 3
    77    78    79    80     1      0.000000000000     -1.549482649691                 2
    77    78    79    91     1    180.000000000000     -1.556339668180                 1
    77    78    79    91     1    180.000000000000      1.682859881397                 2
    77    78    81    82     1      0.000000000000      0.483407861024                 3
    77    78    81   181     1      0.000000000000      0.483407861024                 3
    77    78    81   182     1      0.000000000000      0.483407861024                 3
    78    79    91    92     1    180.000000000000      7.569054279773                 2
    78    79    91    92     1      0.000000000000     -0.201513062842                 1
    78    79    91   189     1    180.000000000000      7.569054279773                 2
    78    79    91   189     1      0.000000000000     -0.201513062842                 1
    78    81    82    83     1      0.000000000000     -1.549482649691                 2
    78    81    82    84     1      0.000000000000      0.111501038139                 3
    79    78    77   179     1      0.000000000000      0.762485897686                 2
    79    78    77   179     1      0.000000000000      0.124362804952                 3
    79    78    81    82     1      0.000000000000      0.483407861024                 3
    79    78    81   181     1      0.000000000000      0.483407861024                 3
    79    78    81   182     1      0.000000000000      0.483407861024                 3
    79    91    92    93     1    180.000000000000     -2.883499339083                 2
    79    91    92    93     1      0.000000000000      1.141330947302                 1
    79    91    92   190     1      0.000000000000      0.762485897686                 2
    79    91    92   190     1      0.000000000000      0.124362804952                 3
    79    91    92   191     1      0.000000000000      0.762485897686                 2
    79    91    92   191     1      0.000000000000      0.124362804952                 3
    80    79    78    81     1      0.000000000000     -1.549482649691                 2
    80    79    78   180     1      0.000000000000      1.900237470334                 1
    80    79    78   180     1      0.000000000000      0.623294863345                 2
    80    79    78   180     1    180.000000000000      0.123847541423                 3
    80    79    91    92     1    180.000000000000     12.978553656010                 2
    80    79    91    92     1      0.000000000000     -1.779100933344                 1
    80    79    91   189     1    180.000000000000      9.825603686166                 2
    80    79    91   189     1      0.000000000000      5.255757435828                 1
    81    78    77   179     1      0.000000000000      0.762485897686                 2
    81    78    77   179     1      0.000000000000      0.124362804952                 3
    81    78    79    91     1      0.000000000000     -0.190866664426                 4
    81    78    79    91     1      0.000000000000      0.642700485649                 2
    81    82    83    87     1    180.000000000000     22.153623103850                 2
    81    82    83   183     1    180.000000000000     22.153623103850                 2
    81    82    84    85     1    180.000000000000      4.866977563957                 2
    81    82    84    86     1    180.000000000000      4.866977563957                 2
    82    81    78   180     1      0.000000000000      0.483407861024                 3
    82    83    87    85     1    180.000000000000      6.596778357662                 2
    82    83    87   185     1    180.000000000000      6.596778357662                 2
    82    84    85    87     1    180.000000000000     15.321515534534                 2
    82    84    85    88     1    180.000000000000     15.321515534534                 2
    82    84    86    89     1    180.000000000000     15.321515534534                 2
    82    84    86   184     1    180.000000000000     15.321515534534                 2
    83    82    81   181     1    180.000000000000      1.239420536339                 3
    83    82    81   181     1      0.000000000000      0.031108134751                 1
    83    82    81   182     1    180.000000000000      1.239420536339                 3
    83    82    81   182     1      0.000000000000      0.031108134751                 1
    83    82    84    85     1    180.000000000000      4.866977563957                 2
    83    82    84    86     1    180.000000000000      4.866977563957                 2
    83    87    85    84     1    180.000000000000      6.596778357662                 2
    83    87    85    88     1    180.000000000000      6.596778357662                 2
    84    82    81   181     1      0.000000000000      0.111501038139                 3
    84    82    81   182     1      0.000000000000      0.111501038139                 3
    84    82    83    87     1    180.000000000000     22.153623103850                 2
    84    82    83   183     1    180.000000000000     22.153623103850                 2
    84    85    87   185     1    180.000000000000      6.596778357662                 2
    84    85    88    90     1    180.000000000000     15.321515534534                 2
    84    85    88   186     1    180.000000000000     15.321515534534                 2
    84    86    89    90     1    180.000000000000     15.321515534534                 2
    84    86    89   187     1    180.000000000000     15.321515534534                 2
    85    84    86    89     1    180.000000000000     15.321515534534                 2
    85    84    86   184     1    180.000000000000     15.321515534534                 2
    85    87    83   183     1    180.000000000000      6.596778357662                 2
    85    88    90    89     1    180.000000000000     15.321515534534                 2
    85    88    90   188     1    180.000000000000     15.321515534534                 2
    86    84    85    87     1    180.000000000000     15.321515534534                 2
    86    84    85    88     1    180.000000000000     15.321515534534                 2
    86    89    90    88     1    180.000000000000     15.321515534534                 2
    86    89    90   188     1    180.000000000000     15.321515534534                 2
    87    85    88    90     1    180.000000000000     15.321515534534                 2
    87    85    88   186     1    180.000000000000     15.321515534534                 2
    88    85    87   185     1    180.000000000000      6.596778357662                 2
    88    90    89   187     1    180.000000000000     15.321515534534                 2
    89    90    88   186     1    180.000000000000     15.321515534534                 2
    90    89    86   184     1    180.000000000000     15.321515534534                 2
    91    79    78   180     1      0.000000000000      0.111501038139                 3
    91    92    93    94     1      0.000000000000     -1.549482649691                 2
    91    92    93    95     1    180.000000000000     -1.556339668180                 1
    91    92    93    95     1    180.000000000000      1.682859881397                 2
    92    93    95    96     1    180.000000000000      7.569054279773                 2
    92    93    95    96     1      0.000000000000     -0.201513062842                 1
    92    93    95   192     1    180.000000000000      7.569054279773                 2
    92    93    95   192     1      0.000000000000     -0.201513062842                 1
    93    92    91   189     1      0.000000000000      0.762485897686                 2
    93    92    91   189     1      0.000000000000      0.124362804952                 3
    93    95    96    97     1    180.000000000000     -2.883499339083                 2
    93    95    96    97     1      0.000000000000      1.141330947302                 1
    93    95    96    99     1    180.000000000000     -0.622862944840                 4
    93    95    96    99     1    180.000000000000     -0.514769632165                 3
    93    95    96    99     1      0.000000000000      1.229801223351                 2
    93    95    96    99     1      0.000000000000     -1.265294746367                 1
    93    95    96   193     1      0.000000000000      0.762485897686                 2
    93    95    96   193     1      0.000000000000      0.124362804952                 3
    94    93    92   190     1      0.000000000000      1.900237470334                 1
    94    93    92   190     1      0.000000000000      0.623294863345                 2
    94    93    92   190     1    180.000000000000      0.123847541423                 3
    94    93    92   191     1      0.000000000000      1.900237470334                 1
    94    93    92   191     1      0.000000000000      0.623294863345                 2
    94    93    92   191     1    180.000000000000      0.123847541423                 3
    94    93    95    96     1    180.000000000000     12.978553656010                 2
    94    93    95    96     1      0.000000000000     -1.779100933344                 1
    94    93    95   192     1    180.000000000000      9.825603686166                 2
    94    93    95   192     1      0.000000000000      5.255757435828                 1
    95    93    92   190     1      0.000000000000      0.111501038139                 3
    95    93    92   191     1      0.000000000000      0.111501038139                 3
    95    96    97    98     1      0.000000000000     -1.549482649691                 2
    95    96    97   112     1    180.000000000000     -1.556339668180                 1
    95    96    97   112     1    180.000000000000      1.682859881397                 2
    95    96    99   100     1      0.000000000000      0.483407861024                 3
    95    96    99   194     1      0.000000000000      0.483407861024                 3
    95    96    99   195     1      0.000000000000      0.483407861024                 3
    96    97   112   113     1    180.000000000000      7.569054279773                 2
    96    97   112   113     1      0.000000000000     -0.201513062842                 1
    96    97   112   205     1    180.000000000000      7.569054279773                 2
    96    97   112   205     1      0.000000000000     -0.201513062842                 1
    96    99   100   101     1      0.000000000000     -1.549482649691                 2
    96    99   100   102     1      0.000000000000      0.111501038139                 3
    97    96    95   192     1      0.000000000000      0.762485897686                 2
    97    96    95   192     1      0.000000000000      0.124362804952                 3
    97    96    99   100     1      0.000000000000      0.483407861024                 3
    97    96    99   194     1      0.000000000000      0.483407861024                 3
    97    96    99   195     1      0.000000000000      0.483407861024                 3
    97   112   113   206     1      0.000000000000      0.762485897686                 2
    97   112   113   206     1      0.000000000000      0.124362804952                 3
    97   112   113   207     1      0.000000000000      0.762485897686                 2
    97   112   113   207     1      0.000000000000      0.124362804952                 3
    97   112   113   208     1      0.000000000000      0.762485897686                 2
    97   112   113   208     1      0.000000000000      0.124362804952                 3
    98    97    96    99     1      0.000000000000     -1.549482649691                 2
    98    97    96   193     1      0.000000000000      1.900237470334                 1
    98    97    96   193     1      0.000000000000      0.623294863345                 2
    98    97    96   193     1    180.000000000000      0.123847541423                 3
    98    97   112   113     1    180.000000000000     12.978553656010                 2
    98    97   112   113     1      0.000000000000     -1.779100933344                 1
    98    97   112   205     1    180.000000000000      9.825603686166                 2
    98    97   112   205     1      0.000000000000      5.255757435828                 1
    99    96    95   192     1      0.000000000000      0.762485897686                 2
    99    96    95   192     1      0.000000000000      0.124362804952                 3
    99    96    97   112     1      0.000000000000     -0.190866664426                 4
    99    96    97   112     1      0.000000000000      0.642700485649                 2
    99   100   101   105     1    180.000000000000     22.153623103850                 2
    99   100   101   196     1    180.000000000000     22.153623103850                 2
    99   100   102   103     1    180.000000000000      4.866977563957                 2
    99   100   102   104     1    180.000000000000      4.866977563957                 2
   100    99    96   193     1      0.000000000000      0.483407861024                 3
   100   101   105   103     1    180.000000000000      6.596778357662                 2
   100   101   105   198     1    180.000000000000      6.596778357662                 2
   100   102   103   105     1    180.000000000000     15.321515534534                 2
   100   102   103   106     1    180.000000000000     15.321515534534                 2
   100   102   104   107     1    180.000000000000     15.321515534534                 2
   100   102   104   197     1    180.000000000000     15.321515534534                 2
   101   100    99   194     1    180.000000000000      1.239420536339                 3
   101   100    99   194     1      0.000000000000      0.031108134751                 1
   101   100    99   195     1    180.000000000000      1.239420536339                 3
   101   100    99   195     1      0.000000000000      0.031108134751                 1
   101   100   102   103     1    180.000000000000      4.866977563957                 2
   101   100   102   104     1    180.000000000000      4.866977563957                 2
   101   105   103   102     1    180.000000000000      6.596778357662                 2
   101   105   103   106     1    180.000000000000      6.596778357662                 2
   102   100    99   194     1      0.000000000000      0.111501038139                 3
   102   100    99   195     1      0.000000000000      0.111501038139                 3
   102   100   101   105     1    180.000000000000     22.153623103850                 2
   102   100   101   196     1    180.000000000000     22.153623103850                 2
   102   103   105   198     1    180.000000000000      6.596778357662                 2
   102   103   106   108     1    180.000000000000     15.321515534534                 2
   102   103   106   199     1    180.000000000000     15.321515534534                 2
   102   104   107   108     1    180.000000000000     15.321515534534                 2
   102   104   107   200     1    180.000000000000     15.321515534534                 2
   103   102   104   107     1    180.000000000000     15.321515534534                 2
   103   102   104   197     1    180.000000000000     15.321515534534                 2
   103   105   101   196     1    180.000000000000      6.596778357662                 2
   103   106   108   107     1    180.000000000000     15.321515534534                 2
   103   106   108   201     1    180.000000000000     15.321515534534                 2
   104   102   103   105     1    180.000000000000     15.321515534534                 2
   104   102   103   106     1    180.000000000000     15.321515534534                 2
   104   107   108   106     1    180.000000000000     15.321515534534                 2
   104   107   108   201     1    180.000000000000     15.321515534534                 2
   105   103   106   108     1    180.000000000000     15.321515534534                 2
   105   103   106   199     1    180.000000000000     15.321515534534                 2
   106   103   105   198     1    180.000000000000      6.596778357662                 2
   106   108   107   200     1    180.000000000000     15.321515534534                 2
   107   108   106   199     1    180.000000000000     15.321515534534                 2
   108   107   104   197     1    180.000000000000     15.321515534534                 2
   109     1     2   115     1      0.000000000000      0.762485897686                 2
   109     1     2   115     1      0.000000000000      0.124362804952                 3
   110   109     1   114     1    180.000000000000      9.825603686166                 2
   110   109     1   114     1      0.000000000000      5.255757435828                 1
   110   109   111   202     1      0.000000000000      1.900237470334                 1
   110   109   111   202     1      0.000000000000      0.623294863345                 2
   110   109   111   202     1    180.000000000000      0.123847541423                 3
   110   109   111   203     1      0.000000000000      1.900237470334                 1
   110   109   111   203     1      0.000000000000      0.623294863345                 2
   110   109   111   203     1    180.000000000000      0.123847541423                 3
   110   109   111   204     1      0.000000000000      1.900237470334                 1
   110   109   111   204     1      0.000000000000      0.623294863345                 2
   110   109   111   204     1    180.000000000000      0.123847541423                 3
   111   109     1   114     1    180.000000000000      7.569054279773                 2
   111   109     1   114     1      0.000000000000     -0.201513062842                 1
   112    97    96   193     1      0.000000000000      0.111501038139                 3
   114     1     2   115     1      0.000000000000      0.762485897686                 2
   114     1     2   115     1      0.000000000000      0.124362804952                 3
   115     2     5   116     1      0.000000000000      0.799950138473                 3
   115     2     5   117     1      0.000000000000      0.799950138473                 3
   118     9    10   119     1      0.000000000000      0.762485897686                 2
   118     9    10   119     1      0.000000000000      0.124362804952                 3
   119    10    13   120     1      0.000000000000      0.799950138473                 3
   119    10    13   121     1      0.000000000000      0.799950138473                 3
   122    15    18   124     1    180.000000000000      6.596778357662                 2
   123    17    18   124     1    180.000000000000      6.596778357662                 2
   125    19    20   126     1      0.000000000000      0.762485897686                 2
   125    19    20   126     1      0.000000000000      0.124362804952                 3
   126    20    23   127     1      0.000000000000      0.799950138473                 3
   126    20    23   128     1      0.000000000000      0.799950138473                 3
   127    23    24   129     1      0.000000000000      0.799950138473                 3
   127    23    24   130     1      0.000000000000      0.799950138473                 3
   128    23    24   129     1      0.000000000000      0.799950138473                 3
   128    23    24   130     1      0.000000000000      0.799950138473                 3
   131    29    32   132     1      0.000000000000      0.799950138473                 3
   131    29    32   133     1      0.000000000000      0.799950138473                 3
   132    32    33   134     1      0.000000000000      0.799950138473                 3
   132    32    33   135     1      0.000000000000      0.799950138473                 3
   133    32    33   134     1      0.000000000000      0.799950138473                 3
   133    32    33   135     1      0.000000000000      0.799950138473                 3
   134    33    34   136     1      0.000000000000      0.799950138473                 3
   134    33    34   137     1      0.000000000000      0.799950138473                 3
   135    33    34   136     1      0.000000000000      0.799950138473                 3
   135    33    34   137     1      0.000000000000      0.799950138473                 3
   138    35    36   139     1      0.000000000000      0.762485897686                 2
   138    35    36   139     1      0.000000000000      0.124362804952                 3
   139    36    39   140     1      0.000000000000      0.799950138473                 3
   140    39    40   141     1      0.000000000000      0.799950138473                 3
   140    39    40   142     1      0.000000000000      0.799950138473                 3
   140    39    41   143     1      0.000000000000      0.799950138473                 3
   140    39    41   144     1      0.000000000000      0.799950138473                 3
   140    39    41   145     1      0.000000000000      0.799950138473                 3
   141    40    42   146     1      0.000000000000      0.799950138473                 3
   141    40    42   147     1      0.000000000000      0.799950138473                 3
   141    40    42   148     1      0.000000000000      0.799950138473                 3
   142    40    42   146     1      0.000000000000      0.799950138473                 3
   142    40    42   147     1      0.000000000000      0.799950138473                 3
   142    40    42   148     1      0.000000000000      0.799950138473                 3
   149    43    44   150     1      0.000000000000      0.762485897686                 2
   149    43    44   150     1      0.000000000000      0.124362804952                 3
   150    44    45   151     1      0.000000000000      0.799950138473                 3
   150    44    47   153     1      0.000000000000      0.799950138473                 3
   150    44    47   154     1      0.000000000000      0.799950138473                 3
   151    45    46   152     1      0.000000000000      1.266241646075                 3
   151    45    59   165     1      0.000000000000      0.852142796599                 3
   153    47    48   155     1      0.000000000000      0.799950138473                 3
   154    47    48   155     1      0.000000000000      0.799950138473                 3
   155    48    49   156     1      0.000000000000      0.799950138473                 3
   155    48    49   157     1      0.000000000000      0.799950138473                 3
   155    48    50   158     1      0.000000000000      0.799950138473                 3
   155    48    50   159     1      0.000000000000      0.799950138473                 3
   156    49    51   160     1      0.000000000000      0.799950138473                 3
   156    49    51   161     1      0.000000000000      0.799950138473                 3
   157    49    51   160     1      0.000000000000      0.799950138473                 3
   157    49    51   161     1      0.000000000000      0.799950138473                 3
   158    50    52   162     1      0.000000000000      0.799950138473                 3
   158    50    52   163     1      0.000000000000      0.799950138473                 3
   159    50    52   162     1      0.000000000000      0.799950138473                 3
   159    50    52   163     1      0.000000000000      0.799950138473                 3
   160    51    53   164     1      0.000000000000      0.799950138473                 3
   161    51    53   164     1      0.000000000000      0.799950138473                 3
   162    52    53   164     1      0.000000000000      0.799950138473                 3
   163    52    53   164     1      0.000000000000      0.799950138473                 3
   165    59    60   166     1      0.000000000000      0.852142796599                 3
   166    60    63   167     1      0.000000000000      0.799950138473                 3
   166    60    63   168     1      0.000000000000      0.799950138473                 3
   167    63    64   169     1      0.000000000000      0.799950138473                 3
   167    63    64   170     1      0.000000000000      0.799950138473                 3
   168    63    64   169     1      0.000000000000      0.799950138473                 3
   168    63    64   170     1      0.000000000000      0.799950138473                 3
   171    68    69   172     1      0.000000000000      0.762485897686                 2
   171    68    69   172     1      0.000000000000      0.124362804952                 3
   172    69    72   173     1      0.000000000000      0.799950138473                 3
   172    69    72   174     1      0.000000000000      0.799950138473                 3
   173    72    73   175     1      0.000000000000      0.799950138473                 3
   173    72    73   176     1      0.000000000000      0.799950138473                 3
   174    72    73   175     1      0.000000000000      0.799950138473                 3
   174    72    73   176     1      0.000000000000      0.799950138473                 3
   179    77    78   180     1      0.000000000000      0.762485897686                 2
   179    77    78   180     1      0.000000000000      0.124362804952                 3
   180    78    81   181     1      0.000000000000      0.799950138473                 3
   180    78    81   182     1      0.000000000000      0.799950138473                 3
   183    83    87   185     1    180.000000000000      6.596778357662                 2
   184    86    89   187     1    180.000000000000     15.321515534534                 2
   186    88    90   188     1    180.000000000000     15.321515534534                 2
   187    89    90   188     1    180.000000000000     15.321515534534                 2
   189    91    92   190     1      0.000000000000      0.762485897686                 2
   189    91    92   190     1      0.000000000000      0.124362804952                 3
   189    91    92   191     1      0.000000000000      0.762485897686                 2
   189    91    92   191     1      0.000000000000      0.124362804952                 3
   192    95    96   193     1      0.000000000000      0.762485897686                 2
   192    95    96   193     1      0.000000000000      0.124362804952                 3
   193    96    99   194     1      0.000000000000      0.799950138473                 3
   193    96    99   195     1      0.000000000000      0.799950138473                 3
   196   101   105   198     1    180.000000000000      6.596778357662                 2
   197   104   107   200     1    180.000000000000     15.321515534534                 2
   199   106   108   201     1    180.000000000000     15.321515534534                 2
   200   107   108   201     1    180.000000000000     15.321515534534                 2
   205   112   113   206     1      0.000000000000      0.762485897686                 2
   205   112   113   206     1      0.000000000000      0.124362804952                 3
   205   112   113   207     1      0.000000000000      0.762485897686                 2
   205   112   113   207     1      0.000000000000      0.124362804952                 3
   205   112   113   208     1      0.000000000000      0.762485897686                 2
   205   112   113   208     1      0.000000000000      0.124362804952                 3
     6     8     5     7     4    180.000000000000     14.644000000000                 2
    25    24    26    27     4    180.000000000000     14.644000000000                 2
     6     5     7     8     4    180.000000000000     14.644000000000                 2
   104   197   102   107     4    180.000000000000      1.534133333333                 2
    61    60    62    68     4    180.000000000000      1.534133333333                 2
    70    69    71    77     4    180.000000000000      1.534133333333                 2
    30    29    31    35     4    180.000000000000      1.534133333333                 2
   109   111     1   110     4    180.000000000000      1.534133333333                 2
    14    16    13    15     4    180.000000000000      1.534133333333                 2
    15    18   122    14     4    180.000000000000      1.534133333333                 2
   107   200   104   108     4    180.000000000000      1.534133333333                 2
    77    78   179    70     4    180.000000000000      1.394666666667                 2
     3     9     2     4     4    180.000000000000      1.534133333333                 2
   112   113   205    97     4    180.000000000000      1.394666666667                 2
    93    94    95    92     4    180.000000000000      1.534133333333                 2
   100   101   102    99     4    180.000000000000      1.534133333333                 2
   105   198   101   103     4    180.000000000000     14.644000000000                 2
    77    70    78   179     4    180.000000000000      1.394666666667                 2
    84    82    85    86     4    180.000000000000      1.534133333333                 2
   102   100   103   104     4    180.000000000000      1.534133333333                 2
    91   189    79    92     4    180.000000000000      1.394666666667                 2
    11    19    10    12     4    180.000000000000      1.534133333333                 2
    85    84    87    88     4    180.000000000000      1.534133333333                 2
    87   185    83    85     4    180.000000000000     14.644000000000                 2
   105   101   103   198     4    180.000000000000     14.644000000000                 2
     3     2     4     9     4    180.000000000000      1.534133333333                 2
    86   184    84    89     4    180.000000000000      1.534133333333                 2
    87    85   185    83     4    180.000000000000     14.644000000000                 2
    65    66    67    64     4    180.000000000000     14.644000000000                 2
    89    86    90   187     4    180.000000000000      1.534133333333                 2
    43    44   149    37     4    180.000000000000      1.394666666667                 2
    85    88    84    87     4    180.000000000000      1.534133333333                 2
    25    26    27    24     4    180.000000000000     14.644000000000                 2
    79    80    91    78     4    180.000000000000      1.534133333333                 2
    83    82    87   183     4    180.000000000000      1.534133333333                 2
   104   107   197   102     4    180.000000000000      1.534133333333                 2
   109   110   111     1     4    180.000000000000      1.534133333333                 2
    89    90   187    86     4    180.000000000000      1.534133333333                 2
     1   109   114     2     4    180.000000000000      1.394666666667                 2
    82    81    83    84     4    180.000000000000      1.534133333333                 2
   102   103   104   100     4    180.000000000000      1.534133333333                 2
    30    31    35    29     4    180.000000000000      1.534133333333                 2
    11    10    12    19     4    180.000000000000      1.534133333333                 2
   103   106   102   105     4    180.000000000000      1.534133333333                 2
    68   171    61    69     4    180.000000000000      1.394666666667                 2
    74    75    76    73     4    180.000000000000      1.534133333333                 2
    15   122    14    18     4    180.000000000000      1.534133333333                 2
    37    38    43    36     4    180.000000000000      1.534133333333                 2
    28    29    34    21     4    180.000000000000      1.394666666667                 2
    18   124    15    17     4    180.000000000000     14.644000000000                 2
    70    71    77    69     4    180.000000000000      1.534133333333                 2
    75    74   177   178     4    180.000000000000      1.394666666667                 2
    25    27    24    26     4    180.000000000000     14.644000000000                 2
    21    28    20    22     4    180.000000000000      1.534133333333                 2
    89   187    86    90     4    180.000000000000      1.534133333333                 2
    82    83    84    81     4    180.000000000000      1.534133333333                 2
    87    83    85   185     4    180.000000000000     14.644000000000                 2
   101   100   105   196     4    180.000000000000      1.534133333333                 2
    70    77    69    71     4    180.000000000000      1.534133333333                 2
    28    34    21    29     4    180.000000000000      1.394666666667                 2
    21    22    28    20     4    180.000000000000      1.534133333333                 2
    35    30    36   138     4    180.000000000000      1.394666666667                 2
     6     7     8     5     4    180.000000000000     14.644000000000                 2
    15    14    18   122     4    180.000000000000      1.534133333333                 2
   106   199   103   108     4    180.000000000000      1.534133333333                 2
    97   112    96    98     4    180.000000000000      1.534133333333                 2
    93    95    92    94     4    180.000000000000      1.534133333333                 2
    68    69   171    61     4    180.000000000000      1.394666666667                 2
   108   107   201   106     4    180.000000000000      1.534133333333                 2
    90    88    89   188     4    180.000000000000      1.534133333333                 2
     9    10   118     3     4    180.000000000000      1.394666666667                 2
     9   118     3    10     4    180.000000000000      1.394666666667                 2
     9     3    10   118     4    180.000000000000      1.394666666667                 2
   103   105   106   102     4    180.000000000000      1.534133333333                 2
   108   106   107   201     4    180.000000000000      1.534133333333                 2
    19    11    20   125     4    180.000000000000      1.394666666667                 2
    86    89   184    84     4    180.000000000000      1.534133333333                 2
    88   186    85    90     4    180.000000000000      1.534133333333                 2
    68    61    69   171     4    180.000000000000      1.394666666667                 2
    90   188    88    89     4    180.000000000000      1.534133333333                 2
    75   177   178    74     4    180.000000000000      1.394666666667                 2
    65    64    66    67     4    180.000000000000     14.644000000000                 2
    18    15    17   124     4    180.000000000000     14.644000000000                 2
    65    67    64    66     4    180.000000000000     14.644000000000                 2
    88    90   186    85     4    180.000000000000      1.534133333333                 2
    18    17   124    15     4    180.000000000000     14.644000000000                 2
   101   105   196   100     4    180.000000000000      1.534133333333                 2
    14    13    15    16     4    180.000000000000      1.534133333333                 2
    43    37    44   149     4    180.000000000000      1.394666666667                 2
    75   178    74   177     4    180.000000000000      1.394666666667                 2
    21    20    22    28     4    180.000000000000      1.534133333333                 2
    88    85    90   186     4    180.000000000000      1.534133333333                 2
    43   149    37    44     4    180.000000000000      1.394666666667                 2
    91    92   189    79     4    180.000000000000      1.394666666667                 2
    85    87    88    84     4    180.000000000000      1.534133333333                 2
    61    62    68    60     4    180.000000000000      1.534133333333                 2
   100    99   101   102     4    180.000000000000      1.534133333333                 2
    19   125    11    20     4    180.000000000000      1.394666666667                 2
     3     4     9     2     4    180.000000000000      1.534133333333                 2
    84    86    82    85     4    180.000000000000      1.534133333333                 2
    74    73    75    76     4    180.000000000000      1.534133333333                 2
    74    76    73    75     4    180.000000000000      1.534133333333                 2
   107   104   108   200     4    180.000000000000      1.534133333333                 2
    95    96   192    93     4    180.000000000000      1.394666666667                 2
    79    91    78    80     4    180.000000000000      1.534133333333                 2
    17    18   123    16     4    180.000000000000     14.644000000000                 2
   103   102   105   106     4    180.000000000000      1.534133333333                 2
    83   183    82    87     4    180.000000000000      1.534133333333                 2
    17    16    18   123     4    180.000000000000     14.644000000000                 2
    61    68    60    62     4    180.000000000000      1.534133333333                 2
    28    21    29    34     4    180.000000000000      1.394666666667                 2
     1     2   109   114     4    180.000000000000      1.394666666667                 2
    14    15    16    13     4    180.000000000000      1.534133333333                 2
    97    98   112    96     4    180.000000000000      1.534133333333                 2
   104   102   107   197     4    180.000000000000      1.534133333333                 2
    90    89   188    88     4    180.000000000000      1.534133333333                 2
   101   196   100   105     4    180.000000000000      1.534133333333                 2
   105   103   198   101     4    180.000000000000     14.644000000000                 2
    37    43    36    38     4    180.000000000000      1.534133333333                 2
     1   114     2   109     4    180.000000000000      1.394666666667                 2
   112    97   113   205     4    180.000000000000      1.394666666667                 2
    95   192    93    96     4    180.000000000000      1.394666666667                 2
   102   104   100   103     4    180.000000000000      1.534133333333                 2
    19    20   125    11     4    180.000000000000      1.394666666667                 2
    37    36    38    43     4    180.000000000000      1.534133333333                 2
   108   201   106   107     4    180.000000000000      1.534133333333                 2
    77   179    70    78     4    180.000000000000      1.394666666667                 2
    17   123    16    18     4    180.000000000000     14.644000000000                 2
   100   102    99   101     4    180.000000000000      1.534133333333                 2
   106   103   108   199     4    180.000000000000      1.534133333333                 2
   109     1   110   111     4    180.000000000000      1.534133333333                 2
    93    92    94    95     4    180.000000000000      1.534133333333                 2
    79    78    80    91     4    180.000000000000      1.534133333333                 2
   106   108   199   103     4    180.000000000000      1.534133333333                 2
    30    35    29    31     4    180.000000000000      1.534133333333                 2
    86    84    89   184     4    180.000000000000      1.534133333333                 2
   107   108   200   104     4    180.000000000000      1.534133333333                 2
   112   205    97   113     4    180.000000000000      1.394666666667                 2
    35    36   138    30     4    180.000000000000      1.394666666667                 2
    35   138    30    36     4    180.000000000000      1.394666666667                 2
    83    87   183    82     4    180.000000000000      1.534133333333                 2
    84    85    86    82     4    180.000000000000      1.534133333333                 2
    82    84    81    83     4    180.000000000000      1.534133333333                 2
    95    93    96   192     4    180.000000000000      1.394666666667                 2
    91    79    92   189     4    180.000000000000      1.394666666667                 2
    97    96    98   112     4    180.000000000000      1.534133333333                 2
    11    12    19    10     4    180.000000000000      1.534133333333                 2

[ settles ]
;i  funct   dOH  dHH


[ exclusions ]
;ai    aj

