[ atomtypes ]
;type, bondingtype, atomic_number, mass, charge, ptype, sigma, epsilon
protein_0  	     7	14.00672	0.0000000000000000	A    	0.3249998524031035	0.7112799996555186
protein_1  	     1	1.007947	0.0000000000000000	A    	0.1069078461720523	0.06568880001765333
protein_2  	     1	1.007947	0.0000000000000000	A    	0.1069078461720523	0.06568880001765333
protein_3  	     1	1.007947	0.0000000000000000	A    	0.1069078461720523	0.06568880001765333
protein_4  	     6	12.01078	0.0000000000000000	A    	0.339966950845074	0.4577295996474049
protein_5  	     1	1.007947	0.0000000000000000	A    	0.1959977179007358	0.06568880026244604
protein_6  	     1	1.007947	0.0000000000000000	A    	0.1959977179007358	0.06568880026244604
protein_7  	     6	12.01078	0.0000000000000000	A    	0.3399669507944831	0.3598240005370534
protein_8  	     8	15.99943	0.0000000000000000	A    	0.2959921901644686	0.8786399993381852
protein_9  	     7	14.00672	0.0000000000000000	A    	0.3249998524031035	0.7112799996555186
protein_10 	     1	1.007947	0.0000000000000000	A    	0.1069078461720523	0.06568880001765333
protein_11 	     6	12.01078	0.0000000000000000	A    	0.339966950845074	0.4577295996474049
protein_12 	     1	1.007947	0.0000000000000000	A    	0.2471353042642165	0.06568880041196259
protein_13 	     6	12.01078	0.0000000000000000	A    	0.3399669507944831	0.3598240005370534
protein_14 	     8	15.99943	0.0000000000000000	A    	0.2959921901644686	0.8786399993381852
protein_15 	     6	12.01078	0.0000000000000000	A    	0.339966950845074	0.4577295996474049
protein_16 	     1	1.007947	0.0000000000000000	A    	0.2649532787260222	0.06568880010977264
protein_17 	     1	1.007947	0.0000000000000000	A    	0.2649532787260222	0.06568880010977264
protein_18 	     1	1.007947	0.0000000000000000	A    	0.2649532787260222	0.06568880010977264
protein_19 	     7	14.00672	0.0000000000000000	A    	0.3249998524031035	0.7112799996555186
protein_20 	     1	1.007947	0.0000000000000000	A    	0.1069078461720523	0.06568880001765333
protein_21 	     6	12.01078	0.0000000000000000	A    	0.339966950845074	0.4577295996474049
protein_22 	     1	1.007947	0.0000000000000000	A    	0.2471353042642165	0.06568880041196259
protein_23 	     6	12.01078	0.0000000000000000	A    	0.3399669507944831	0.3598240005370534
protein_24 	     8	15.99943	0.0000000000000000	A    	0.2959921901644686	0.8786399993381852
protein_25 	     6	12.01078	0.0000000000000000	A    	0.339966950845074	0.4577295996474049
protein_26 	     1	1.007947	0.0000000000000000	A    	0.2649532787260222	0.06568880010977264
protein_27 	     1	1.007947	0.0000000000000000	A    	0.2649532787260222	0.06568880010977264
protein_28 	     6	12.01078	0.0000000000000000	A    	0.339966950845074	0.4577295996474049
protein_29 	     1	1.007947	0.0000000000000000	A    	0.2471353042642165	0.06568880041196259
protein_30 	     1	1.007947	0.0000000000000000	A    	0.2471353042642165	0.06568880041196259
protein_31 	    16	32.0655	0.0000000000000000	A    	0.3563594872561356	1.046
protein_32 	     6	12.01078	0.0000000000000000	A    	0.339966950845074	0.4577295996474049
protein_33 	     1	1.007947	0.0000000000000000	A    	0.2471353042642165	0.06568880041196259
protein_34 	     1	1.007947	0.0000000000000000	A    	0.2471353042642165	0.06568880041196259
protein_35 	     1	1.007947	0.0000000000000000	A    	0.2471353042642165	0.06568880041196259
protein_36 	     7	14.00672	0.0000000000000000	A    	0.3249998524031035	0.7112799996555186
protein_37 	     1	1.007947	0.0000000000000000	A    	0.1069078461720523	0.06568880001765333
protein_38 	     6	12.01078	0.0000000000000000	A    	0.339966950845074	0.4577295996474049
protein_39 	     1	1.007947	0.0000000000000000	A    	0.2471353042642165	0.06568880041196259
protein_40 	     6	12.01078	0.0000000000000000	A    	0.3399669507944831	0.3598240005370534
protein_41 	     8	15.99943	0.0000000000000000	A    	0.2959921901644686	0.8786399993381852
protein_42 	     6	12.01078	0.0000000000000000	A    	0.339966950845074	0.4577295996474049
protein_43 	     1	1.007947	0.0000000000000000	A    	0.2649532787260222	0.06568880010977264
protein_44 	     1	1.007947	0.0000000000000000	A    	0.2649532787260222	0.06568880010977264
protein_45 	     6	12.01078	0.0000000000000000	A    	0.3399669507944831	0.3598240005370534
protein_46 	     8	15.99943	0.0000000000000000	A    	0.2959921901644686	0.8786399993381852
protein_47 	     8	15.99943	0.0000000000000000	A    	0.2959921901644686	0.8786399993381852
protein_48 	     7	14.00672	0.0000000000000000	A    	0.3249998524031035	0.7112799996555186
protein_49 	     1	1.007947	0.0000000000000000	A    	0.1069078461720523	0.06568880001765333
protein_50 	     6	12.01078	0.0000000000000000	A    	0.339966950845074	0.4577295996474049
protein_51 	     1	1.007947	0.0000000000000000	A    	0.2471353042642165	0.06568880041196259
protein_52 	     6	12.01078	0.0000000000000000	A    	0.3399669507944831	0.3598240005370534
protein_53 	     8	15.99943	0.0000000000000000	A    	0.2959921901644686	0.8786399993381852
protein_54 	     6	12.01078	0.0000000000000000	A    	0.339966950845074	0.4577295996474049
protein_55 	     1	1.007947	0.0000000000000000	A    	0.2471353042642165	0.06568880041196259
protein_56 	     1	1.007947	0.0000000000000000	A    	0.2471353042642165	0.06568880041196259
protein_57 	     8	15.99943	0.0000000000000000	A    	0.3066473387458142	0.8803136010405576
protein_58 	     1	1.007947	0.0000000000000000	A    	0	0
protein_59 	     7	14.00672	0.0000000000000000	A    	0.3249998524031035	0.7112799996555186
protein_60 	     1	1.007947	0.0000000000000000	A    	0.1069078461720523	0.06568880001765333
protein_61 	     6	12.01078	0.0000000000000000	A    	0.339966950845074	0.4577295996474049
protein_62 	     1	1.007947	0.0000000000000000	A    	0.2471353042642165	0.06568880041196259
protein_63 	     6	12.01078	0.0000000000000000	A    	0.3399669507944831	0.3598240005370534
protein_64 	     8	15.99943	0.0000000000000000	A    	0.2959921901644686	0.8786399993381852
protein_65 	     6	12.01078	0.0000000000000000	A    	0.339966950845074	0.4577295996474049
protein_66 	     1	1.007947	0.0000000000000000	A    	0.2649532787260222	0.06568880010977264
protein_67 	     6	12.01078	0.0000000000000000	A    	0.339966950845074	0.4577295996474049
protein_68 	     1	1.007947	0.0000000000000000	A    	0.2649532787260222	0.06568880010977264
protein_69 	     1	1.007947	0.0000000000000000	A    	0.2649532787260222	0.06568880010977264
protein_70 	     6	12.01078	0.0000000000000000	A    	0.339966950845074	0.4577295996474049
protein_71 	     1	1.007947	0.0000000000000000	A    	0.2649532787260222	0.06568880010977264
protein_72 	     1	1.007947	0.0000000000000000	A    	0.2649532787260222	0.06568880010977264
protein_73 	     1	1.007947	0.0000000000000000	A    	0.2649532787260222	0.06568880010977264
protein_74 	     6	12.01078	0.0000000000000000	A    	0.339966950845074	0.4577295996474049
protein_75 	     1	1.007947	0.0000000000000000	A    	0.2649532787260222	0.06568880010977264
protein_76 	     1	1.007947	0.0000000000000000	A    	0.2649532787260222	0.06568880010977264
protein_77 	     1	1.007947	0.0000000000000000	A    	0.2649532787260222	0.06568880010977264
protein_78 	     7	14.00672	0.0000000000000000	A    	0.3249998524031035	0.7112799996555186
protein_79 	     1	1.007947	0.0000000000000000	A    	0.1069078461720523	0.06568880001765333
protein_80 	     6	12.01078	0.0000000000000000	A    	0.339966950845074	0.4577295996474049
protein_81 	     1	1.007947	0.0000000000000000	A    	0.2471353042642165	0.06568880041196259
protein_82 	     6	12.01078	0.0000000000000000	A    	0.3399669507944831	0.3598240005370534
protein_83 	     8	15.99943	0.0000000000000000	A    	0.2959921901644686	0.8786399993381852
protein_84 	     6	12.01078	0.0000000000000000	A    	0.339966950845074	0.4577295996474049
protein_85 	     1	1.007947	0.0000000000000000	A    	0.2649532787260222	0.06568880010977264
protein_86 	     1	1.007947	0.0000000000000000	A    	0.2649532787260222	0.06568880010977264
protein_87 	     6	12.01078	0.0000000000000000	A    	0.339966950845074	0.4577295996474049
protein_88 	     1	1.007947	0.0000000000000000	A    	0.2649532787260222	0.06568880010977264
protein_89 	     1	1.007947	0.0000000000000000	A    	0.2649532787260222	0.06568880010977264
protein_90 	     6	12.01078	0.0000000000000000	A    	0.3399669507944831	0.3598240005370534
protein_91 	     7	14.00672	0.0000000000000000	A    	0.3249998524031035	0.7112799996555186
protein_92 	     1	1.007947	0.0000000000000000	A    	0.1069078461720523	0.06568880001765333
protein_93 	     1	1.007947	0.0000000000000000	A    	0.1069078461720523	0.06568880001765333
protein_94 	     8	15.99943	0.0000000000000000	A    	0.2959921901644686	0.8786399993381852
protein_95 	     7	14.00672	0.0000000000000000	A    	0.3249998524031035	0.7112799996555186
protein_96 	     1	1.007947	0.0000000000000000	A    	0.1069078461720523	0.06568880001765333
protein_97 	     6	12.01078	0.0000000000000000	A    	0.339966950845074	0.4577295996474049
protein_98 	     1	1.007947	0.0000000000000000	A    	0.2471353042642165	0.06568880041196259
protein_99 	     6	12.01078	0.0000000000000000	A    	0.3399669507944831	0.3598240005370534
protein_100	     8	15.99943	0.0000000000000000	A    	0.2959921901644686	0.8786399993381852
protein_101	     6	12.01078	0.0000000000000000	A    	0.339966950845074	0.4577295996474049
protein_102	     1	1.007947	0.0000000000000000	A    	0.2649532787260222	0.06568880010977264
protein_103	     1	1.007947	0.0000000000000000	A    	0.2649532787260222	0.06568880010977264
protein_104	     1	1.007947	0.0000000000000000	A    	0.2649532787260222	0.06568880010977264
protein_105	     7	14.00672	0.0000000000000000	A    	0.3249998524031035	0.7112799996555186
protein_106	     1	1.007947	0.0000000000000000	A    	0.1069078461720523	0.06568880001765333
protein_107	     6	12.01078	0.0000000000000000	A    	0.339966950845074	0.4577295996474049
protein_108	     1	1.007947	0.0000000000000000	A    	0.2471353042642165	0.06568880041196259
protein_109	     6	12.01078	0.0000000000000000	A    	0.3399669507944831	0.3598240005370534
protein_110	     8	15.99943	0.0000000000000000	A    	0.2959921901644686	0.8786399993381852
protein_111	     6	12.01078	0.0000000000000000	A    	0.339966950845074	0.4577295996474049
protein_112	     1	1.007947	0.0000000000000000	A    	0.2649532787260222	0.06568880010977264
protein_113	     1	1.007947	0.0000000000000000	A    	0.2649532787260222	0.06568880010977264
protein_114	     6	12.01078	0.0000000000000000	A    	0.339966950845074	0.4577295996474049
protein_115	     1	1.007947	0.0000000000000000	A    	0.2649532787260222	0.06568880010977264
protein_116	     1	1.007947	0.0000000000000000	A    	0.2649532787260222	0.06568880010977264
protein_117	     6	12.01078	0.0000000000000000	A    	0.3399669507944831	0.3598240005370534
protein_118	     8	15.99943	0.0000000000000000	A    	0.2959921901644686	0.8786399993381852
protein_119	     8	15.99943	0.0000000000000000	A    	0.2959921901644686	0.8786399993381852
protein_120	     7	14.00672	0.0000000000000000	A    	0.3249998524031035	0.7112799996555186
protein_121	     1	1.007947	0.0000000000000000	A    	0.1069078461720523	0.06568880001765333
protein_122	     6	12.01078	0.0000000000000000	A    	0.339966950845074	0.4577295996474049
protein_123	     1	1.007947	0.0000000000000000	A    	0.2471353042642165	0.06568880041196259
protein_124	     6	12.01078	0.0000000000000000	A    	0.3399669507944831	0.3598240005370534
protein_125	     8	15.99943	0.0000000000000000	A    	0.2959921901644686	0.8786399993381852
protein_126	     6	12.01078	0.0000000000000000	A    	0.339966950845074	0.4577295996474049
protein_127	     1	1.007947	0.0000000000000000	A    	0.2649532787260222	0.06568880010977264
protein_128	     1	1.007947	0.0000000000000000	A    	0.2649532787260222	0.06568880010977264
protein_129	     6	12.01078	0.0000000000000000	A    	0.339966950845074	0.4577295996474049
protein_130	     1	1.007947	0.0000000000000000	A    	0.2649532787260222	0.06568880010977264
protein_131	     1	1.007947	0.0000000000000000	A    	0.2649532787260222	0.06568880010977264
protein_132	     6	12.01078	0.0000000000000000	A    	0.3399669507944831	0.3598240005370534
protein_133	     8	15.99943	0.0000000000000000	A    	0.2959921901644686	0.8786399993381852
protein_134	     8	15.99943	0.0000000000000000	A    	0.2959921901644686	0.8786399993381852
protein_135	     7	14.00672	0.0000000000000000	A    	0.3249998524031035	0.7112799996555186
protein_136	     1	1.007947	0.0000000000000000	A    	0.1069078461720523	0.06568880001765333
protein_137	     6	12.01078	0.0000000000000000	A    	0.339966950845074	0.4577295996474049
protein_138	     1	1.007947	0.0000000000000000	A    	0.2471353042642165	0.06568880041196259
protein_139	     6	12.01078	0.0000000000000000	A    	0.3399669507944831	0.3598240005370534
protein_140	     8	15.99943	0.0000000000000000	A    	0.2959921901644686	0.8786399993381852
protein_141	     6	12.01078	0.0000000000000000	A    	0.339966950845074	0.4577295996474049
protein_142	     1	1.007947	0.0000000000000000	A    	0.2649532787260222	0.06568880010977264
protein_143	     1	1.007947	0.0000000000000000	A    	0.2649532787260222	0.06568880010977264
protein_144	     6	12.01078	0.0000000000000000	A    	0.3399669507944831	0.3598240005370534
protein_145	     6	12.01078	0.0000000000000000	A    	0.3399669507944831	0.3598240005370534
protein_146	     1	1.007947	0.0000000000000000	A    	0.2510552587583135	0.06275999996435834
protein_147	     6	12.01078	0.0000000000000000	A    	0.3399669507944831	0.3598240005370534
protein_148	     6	12.01078	0.0000000000000000	A    	0.3399669507944831	0.3598240005370534
protein_149	     6	12.01078	0.0000000000000000	A    	0.3399669507944831	0.3598240005370534
protein_150	     1	1.007947	0.0000000000000000	A    	0.2599642458735085	0.06276000026869927
protein_151	     7	14.00672	0.0000000000000000	A    	0.3249998524031035	0.7112799996555186
protein_152	     1	1.007947	0.0000000000000000	A    	0.1069078461720523	0.06568880001765333
protein_153	     6	12.01078	0.0000000000000000	A    	0.3399669507944831	0.3598240005370534
protein_154	     1	1.007947	0.0000000000000000	A    	0.2599642458735085	0.06276000026869927
protein_155	     6	12.01078	0.0000000000000000	A    	0.3399669507944831	0.3598240005370534
protein_156	     1	1.007947	0.0000000000000000	A    	0.2599642458735085	0.06276000026869927
protein_157	     6	12.01078	0.0000000000000000	A    	0.3399669507944831	0.3598240005370534
protein_158	     1	1.007947	0.0000000000000000	A    	0.2599642458735085	0.06276000026869927
protein_159	     7	14.00672	0.0000000000000000	A    	0.3249998524031035	0.7112799996555186
protein_160	     1	1.007947	0.0000000000000000	A    	0.1069078461720523	0.06568880001765333
protein_161	     6	12.01078	0.0000000000000000	A    	0.339966950845074	0.4577295996474049
protein_162	     1	1.007947	0.0000000000000000	A    	0.2471353042642165	0.06568880041196259
protein_163	     6	12.01078	0.0000000000000000	A    	0.3399669507944831	0.3598240005370534
protein_164	     8	15.99943	0.0000000000000000	A    	0.2959921901644686	0.8786399993381852
protein_165	     6	12.01078	0.0000000000000000	A    	0.339966950845074	0.4577295996474049
protein_166	     1	1.007947	0.0000000000000000	A    	0.2649532787260222	0.06568880010977264
protein_167	     1	1.007947	0.0000000000000000	A    	0.2649532787260222	0.06568880010977264
protein_168	     6	12.01078	0.0000000000000000	A    	0.3399669507944831	0.3598240005370534
protein_169	     6	12.01078	0.0000000000000000	A    	0.3399669507944831	0.3598240005370534
protein_170	     1	1.007947	0.0000000000000000	A    	0.2599642458735085	0.06276000026869927
protein_171	     6	12.01078	0.0000000000000000	A    	0.3399669507944831	0.3598240005370534
protein_172	     1	1.007947	0.0000000000000000	A    	0.2599642458735085	0.06276000026869927
protein_173	     6	12.01078	0.0000000000000000	A    	0.3399669507944831	0.3598240005370534
protein_174	     1	1.007947	0.0000000000000000	A    	0.2599642458735085	0.06276000026869927
protein_175	     6	12.01078	0.0000000000000000	A    	0.3399669507944831	0.3598240005370534
protein_176	     1	1.007947	0.0000000000000000	A    	0.2599642458735085	0.06276000026869927
protein_177	     6	12.01078	0.0000000000000000	A    	0.3399669507944831	0.3598240005370534
protein_178	     8	15.99943	0.0000000000000000	A    	0.3066473387458142	0.8803136010405576
protein_179	     1	1.007947	0.0000000000000000	A    	0	0
protein_180	     7	14.00672	0.0000000000000000	A    	0.3249998524031035	0.7112799996555186
protein_181	     1	1.007947	0.0000000000000000	A    	0.1069078461720523	0.06568880001765333
protein_182	     6	12.01078	0.0000000000000000	A    	0.339966950845074	0.4577295996474049
protein_183	     1	1.007947	0.0000000000000000	A    	0.2471353042642165	0.06568880041196259
protein_184	     6	12.01078	0.0000000000000000	A    	0.3399669507944831	0.3598240005370534
protein_185	     8	15.99943	0.0000000000000000	A    	0.2959921901644686	0.8786399993381852
protein_186	     6	12.01078	0.0000000000000000	A    	0.339966950845074	0.4577295996474049
protein_187	     1	1.007947	0.0000000000000000	A    	0.2649532787260222	0.06568880010977264
protein_188	     1	1.007947	0.0000000000000000	A    	0.2649532787260222	0.06568880010977264
protein_189	     6	12.01078	0.0000000000000000	A    	0.3399669507944831	0.3598240005370534
protein_190	     6	12.01078	0.0000000000000000	A    	0.3399669507944831	0.3598240005370534
protein_191	     1	1.007947	0.0000000000000000	A    	0.2599642458735085	0.06276000026869927
protein_192	     6	12.01078	0.0000000000000000	A    	0.3399669507944831	0.3598240005370534
protein_193	     1	1.007947	0.0000000000000000	A    	0.2599642458735085	0.06276000026869927
protein_194	     6	12.01078	0.0000000000000000	A    	0.3399669507944831	0.3598240005370534
protein_195	     1	1.007947	0.0000000000000000	A    	0.2599642458735085	0.06276000026869927
protein_196	     6	12.01078	0.0000000000000000	A    	0.3399669507944831	0.3598240005370534
protein_197	     1	1.007947	0.0000000000000000	A    	0.2599642458735085	0.06276000026869927
protein_198	     6	12.01078	0.0000000000000000	A    	0.3399669507944831	0.3598240005370534
protein_199	     1	1.007947	0.0000000000000000	A    	0.2599642458735085	0.06276000026869927
protein_200	     7	14.00672	0.0000000000000000	A    	0.3249998524031035	0.7112799996555186
protein_201	     1	1.007947	0.0000000000000000	A    	0.1069078461720523	0.06568880001765333
protein_202	     6	12.01078	0.0000000000000000	A    	0.339966950845074	0.4577295996474049
protein_203	     1	1.007947	0.0000000000000000	A    	0.2471353042642165	0.06568880041196259
protein_204	     1	1.007947	0.0000000000000000	A    	0.2471353042642165	0.06568880041196259
protein_205	     6	12.01078	0.0000000000000000	A    	0.3399669507944831	0.3598240005370534
protein_206	     8	15.99943	0.0000000000000000	A    	0.2959921901644686	0.8786399993381852
protein_207	     7	14.00672	0.0000000000000000	A    	0.3249998524031035	0.7112799996555186
protein_208	     1	1.007947	0.0000000000000000	A    	0.1069078461720523	0.06568880001765333
protein_209	     6	12.01078	0.0000000000000000	A    	0.339966950845074	0.4577295996474049
protein_210	     1	1.007947	0.0000000000000000	A    	0.2471353042642165	0.06568880041196259
protein_211	     6	12.01078	0.0000000000000000	A    	0.3399669507944831	0.3598240005370534
protein_212	     8	15.99943	0.0000000000000000	A    	0.2959921901644686	0.8786399993381852
protein_213	     6	12.01078	0.0000000000000000	A    	0.339966950845074	0.4577295996474049
protein_214	     1	1.007947	0.0000000000000000	A    	0.2649532787260222	0.06568880010977264
protein_215	     1	1.007947	0.0000000000000000	A    	0.2649532787260222	0.06568880010977264
protein_216	     6	12.01078	0.0000000000000000	A    	0.339966950845074	0.4577295996474049
protein_217	     1	1.007947	0.0000000000000000	A    	0.2649532787260222	0.06568880010977264
protein_218	     1	1.007947	0.0000000000000000	A    	0.2649532787260222	0.06568880010977264
protein_219	     6	12.01078	0.0000000000000000	A    	0.339966950845074	0.4577295996474049
protein_220	     1	1.007947	0.0000000000000000	A    	0.2649532787260222	0.06568880010977264
protein_221	     1	1.007947	0.0000000000000000	A    	0.2649532787260222	0.06568880010977264
protein_222	     6	12.01078	0.0000000000000000	A    	0.339966950845074	0.4577295996474049
protein_223	     1	1.007947	0.0000000000000000	A    	0.1959977179007358	0.06568880026244604
protein_224	     1	1.007947	0.0000000000000000	A    	0.1959977179007358	0.06568880026244604
protein_225	     7	14.00672	0.0000000000000000	A    	0.3249998524031035	0.7112799996555186
protein_226	     1	1.007947	0.0000000000000000	A    	0.1069078461720523	0.06568880001765333
protein_227	     1	1.007947	0.0000000000000000	A    	0.1069078461720523	0.06568880001765333
protein_228	     1	1.007947	0.0000000000000000	A    	0.1069078461720523	0.06568880001765333
protein_229	     7	14.00672	0.0000000000000000	A    	0.3249998524031035	0.7112799996555186
protein_230	     1	1.007947	0.0000000000000000	A    	0.1069078461720523	0.06568880001765333
protein_231	     6	12.01078	0.0000000000000000	A    	0.339966950845074	0.4577295996474049
protein_232	     1	1.007947	0.0000000000000000	A    	0.2471353042642165	0.06568880041196259
protein_233	     6	12.01078	0.0000000000000000	A    	0.3399669507944831	0.3598240005370534
protein_234	     8	15.99943	0.0000000000000000	A    	0.2959921901644686	0.8786399993381852
protein_235	     6	12.01078	0.0000000000000000	A    	0.339966950845074	0.4577295996474049
protein_236	     1	1.007947	0.0000000000000000	A    	0.2649532787260222	0.06568880010977264
protein_237	     6	12.01078	0.0000000000000000	A    	0.339966950845074	0.4577295996474049
protein_238	     1	1.007947	0.0000000000000000	A    	0.2649532787260222	0.06568880010977264
protein_239	     1	1.007947	0.0000000000000000	A    	0.2649532787260222	0.06568880010977264
protein_240	     6	12.01078	0.0000000000000000	A    	0.339966950845074	0.4577295996474049
protein_241	     1	1.007947	0.0000000000000000	A    	0.2649532787260222	0.06568880010977264
protein_242	     1	1.007947	0.0000000000000000	A    	0.2649532787260222	0.06568880010977264
protein_243	     1	1.007947	0.0000000000000000	A    	0.2649532787260222	0.06568880010977264
protein_244	     6	12.01078	0.0000000000000000	A    	0.339966950845074	0.4577295996474049
protein_245	     1	1.007947	0.0000000000000000	A    	0.2649532787260222	0.06568880010977264
protein_246	     1	1.007947	0.0000000000000000	A    	0.2649532787260222	0.06568880010977264
protein_247	     1	1.007947	0.0000000000000000	A    	0.2649532787260222	0.06568880010977264
protein_248	     7	14.00672	0.0000000000000000	A    	0.3249998524031035	0.7112799996555186
protein_249	     1	1.007947	0.0000000000000000	A    	0.1069078461720523	0.06568880001765333
protein_250	     6	12.01078	0.0000000000000000	A    	0.339966950845074	0.4577295996474049
protein_251	     1	1.007947	0.0000000000000000	A    	0.2471353042642165	0.06568880041196259
protein_252	     6	12.01078	0.0000000000000000	A    	0.3399669507944831	0.3598240005370534
protein_253	     8	15.99943	0.0000000000000000	A    	0.2959921901644686	0.8786399993381852
protein_254	     6	12.01078	0.0000000000000000	A    	0.339966950845074	0.4577295996474049
protein_255	     1	1.007947	0.0000000000000000	A    	0.2471353042642165	0.06568880041196259
protein_256	     6	12.01078	0.0000000000000000	A    	0.339966950845074	0.4577295996474049
protein_257	     1	1.007947	0.0000000000000000	A    	0.2649532787260222	0.06568880010977264
protein_258	     1	1.007947	0.0000000000000000	A    	0.2649532787260222	0.06568880010977264
protein_259	     1	1.007947	0.0000000000000000	A    	0.2649532787260222	0.06568880010977264
protein_260	     8	15.99943	0.0000000000000000	A    	0.3066473387458142	0.8803136010405576
protein_261	     1	1.007947	0.0000000000000000	A    	0	0
protein_262	     7	14.00672	0.0000000000000000	A    	0.3249998524031035	0.7112799996555186
protein_263	     1	1.007947	0.0000000000000000	A    	0.1069078461720523	0.06568880001765333
protein_264	     6	12.01078	0.0000000000000000	A    	0.339966950845074	0.4577295996474049
protein_265	     1	1.007947	0.0000000000000000	A    	0.2471353042642165	0.06568880041196259
protein_266	     6	12.01078	0.0000000000000000	A    	0.3399669507944831	0.3598240005370534
protein_267	     8	15.99943	0.0000000000000000	A    	0.2959921901644686	0.8786399993381852
protein_268	     6	12.01078	0.0000000000000000	A    	0.339966950845074	0.4577295996474049
protein_269	     1	1.007947	0.0000000000000000	A    	0.2649532787260222	0.06568880010977264
protein_270	     1	1.007947	0.0000000000000000	A    	0.2649532787260222	0.06568880010977264
protein_271	     6	12.01078	0.0000000000000000	A    	0.339966950845074	0.4577295996474049
protein_272	     1	1.007947	0.0000000000000000	A    	0.2649532787260222	0.06568880010977264
protein_273	     1	1.007947	0.0000000000000000	A    	0.2649532787260222	0.06568880010977264
protein_274	     6	12.01078	0.0000000000000000	A    	0.339966950845074	0.4577295996474049
protein_275	     1	1.007947	0.0000000000000000	A    	0.2471353042642165	0.06568880041196259
protein_276	     1	1.007947	0.0000000000000000	A    	0.2471353042642165	0.06568880041196259
protein_277	     7	14.00672	0.0000000000000000	A    	0.3249998524031035	0.7112799996555186
protein_278	     1	1.007947	0.0000000000000000	A    	0.1069078461720523	0.06568880001765333
protein_279	     6	12.01078	0.0000000000000000	A    	0.3399669507944831	0.3598240005370534
protein_280	     7	14.00672	0.0000000000000000	A    	0.3249998524031035	0.7112799996555186
protein_281	     1	1.007947	0.0000000000000000	A    	0.1069078461720523	0.06568880001765333
protein_282	     1	1.007947	0.0000000000000000	A    	0.1069078461720523	0.06568880001765333
protein_283	     7	14.00672	0.0000000000000000	A    	0.3249998524031035	0.7112799996555186
protein_284	     1	1.007947	0.0000000000000000	A    	0.1069078461720523	0.06568880001765333
protein_285	     1	1.007947	0.0000000000000000	A    	0.1069078461720523	0.06568880001765333
protein_286	     7	14.00672	0.0000000000000000	A    	0.3249998524031035	0.7112799996555186
protein_287	     1	1.007947	0.0000000000000000	A    	0.1069078461720523	0.06568880001765333
protein_288	     6	12.01078	0.0000000000000000	A    	0.339966950845074	0.4577295996474049
protein_289	     1	1.007947	0.0000000000000000	A    	0.2471353042642165	0.06568880041196259
protein_290	     6	12.01078	0.0000000000000000	A    	0.3399669507944831	0.3598240005370534
protein_291	     8	15.99943	0.0000000000000000	A    	0.2959921901644686	0.8786399993381852
protein_292	     6	12.01078	0.0000000000000000	A    	0.339966950845074	0.4577295996474049
protein_293	     1	1.007947	0.0000000000000000	A    	0.2649532787260222	0.06568880010977264
protein_294	     1	1.007947	0.0000000000000000	A    	0.2649532787260222	0.06568880010977264
protein_295	     6	12.01078	0.0000000000000000	A    	0.339966950845074	0.4577295996474049
protein_296	     1	1.007947	0.0000000000000000	A    	0.2649532787260222	0.06568880010977264
protein_297	     1	1.007947	0.0000000000000000	A    	0.2649532787260222	0.06568880010977264
protein_298	     6	12.01078	0.0000000000000000	A    	0.339966950845074	0.4577295996474049
protein_299	     1	1.007947	0.0000000000000000	A    	0.2471353042642165	0.06568880041196259
protein_300	     1	1.007947	0.0000000000000000	A    	0.2471353042642165	0.06568880041196259
protein_301	     7	14.00672	0.0000000000000000	A    	0.3249998524031035	0.7112799996555186
protein_302	     1	1.007947	0.0000000000000000	A    	0.1069078461720523	0.06568880001765333
protein_303	     6	12.01078	0.0000000000000000	A    	0.3399669507944831	0.3598240005370534
protein_304	     7	14.00672	0.0000000000000000	A    	0.3249998524031035	0.7112799996555186
protein_305	     1	1.007947	0.0000000000000000	A    	0.1069078461720523	0.06568880001765333
protein_306	     1	1.007947	0.0000000000000000	A    	0.1069078461720523	0.06568880001765333
protein_307	     7	14.00672	0.0000000000000000	A    	0.3249998524031035	0.7112799996555186
protein_308	     1	1.007947	0.0000000000000000	A    	0.1069078461720523	0.06568880001765333
protein_309	     1	1.007947	0.0000000000000000	A    	0.1069078461720523	0.06568880001765333
protein_310	     7	14.00672	0.0000000000000000	A    	0.3249998524031035	0.7112799996555186
protein_311	     1	1.007947	0.0000000000000000	A    	0.1069078461720523	0.06568880001765333
protein_312	     6	12.01078	0.0000000000000000	A    	0.339966950845074	0.4577295996474049
protein_313	     1	1.007947	0.0000000000000000	A    	0.2471353042642165	0.06568880041196259
protein_314	     6	12.01078	0.0000000000000000	A    	0.3399669507944831	0.3598240005370534
protein_315	     8	15.99943	0.0000000000000000	A    	0.2959921901644686	0.8786399993381852
protein_316	     6	12.01078	0.0000000000000000	A    	0.339966950845074	0.4577295996474049
protein_317	     1	1.007947	0.0000000000000000	A    	0.2649532787260222	0.06568880010977264
protein_318	     1	1.007947	0.0000000000000000	A    	0.2649532787260222	0.06568880010977264
protein_319	     6	12.01078	0.0000000000000000	A    	0.339966950845074	0.4577295996474049
protein_320	     1	1.007947	0.0000000000000000	A    	0.2649532787260222	0.06568880010977264
protein_321	     1	1.007947	0.0000000000000000	A    	0.2649532787260222	0.06568880010977264
protein_322	     6	12.01078	0.0000000000000000	A    	0.3399669507944831	0.3598240005370534
protein_323	     8	15.99943	0.0000000000000000	A    	0.2959921901644686	0.8786399993381852
protein_324	     8	15.99943	0.0000000000000000	A    	0.2959921901644686	0.8786399993381852
protein_325	     7	14.00672	0.0000000000000000	A    	0.3249998524031035	0.7112799996555186
protein_326	     1	1.007947	0.0000000000000000	A    	0.1069078461720523	0.06568880001765333
protein_327	     6	12.01078	0.0000000000000000	A    	0.339966950845074	0.4577295996474049
protein_328	     1	1.007947	0.0000000000000000	A    	0.2471353042642165	0.06568880041196259
protein_329	     6	12.01078	0.0000000000000000	A    	0.3399669507944831	0.3598240005370534
protein_330	     8	15.99943	0.0000000000000000	A    	0.2959921901644686	0.8786399993381852
protein_331	     6	12.01078	0.0000000000000000	A    	0.339966950845074	0.4577295996474049
protein_332	     1	1.007947	0.0000000000000000	A    	0.2471353042642165	0.06568880041196259
protein_333	     1	1.007947	0.0000000000000000	A    	0.2471353042642165	0.06568880041196259
protein_334	     8	15.99943	0.0000000000000000	A    	0.3066473387458142	0.8803136010405576
protein_335	     1	1.007947	0.0000000000000000	A    	0	0
protein_336	     7	14.00672	0.0000000000000000	A    	0.3249998524031035	0.7112799996555186
protein_337	     1	1.007947	0.0000000000000000	A    	0.1069078461720523	0.06568880001765333
protein_338	     6	12.01078	0.0000000000000000	A    	0.339966950845074	0.4577295996474049
protein_339	     1	1.007947	0.0000000000000000	A    	0.2471353042642165	0.06568880041196259
protein_340	     6	12.01078	0.0000000000000000	A    	0.3399669507944831	0.3598240005370534
protein_341	     8	15.99943	0.0000000000000000	A    	0.2959921901644686	0.8786399993381852
protein_342	     6	12.01078	0.0000000000000000	A    	0.339966950845074	0.4577295996474049
protein_343	     1	1.007947	0.0000000000000000	A    	0.2649532787260222	0.06568880010977264
protein_344	     1	1.007947	0.0000000000000000	A    	0.2649532787260222	0.06568880010977264
protein_345	     6	12.01078	0.0000000000000000	A    	0.339966950845074	0.4577295996474049
protein_346	     1	1.007947	0.0000000000000000	A    	0.2649532787260222	0.06568880010977264
protein_347	     1	1.007947	0.0000000000000000	A    	0.2649532787260222	0.06568880010977264
protein_348	     6	12.01078	0.0000000000000000	A    	0.3399669507944831	0.3598240005370534
protein_349	     8	15.99943	0.0000000000000000	A    	0.2959921901644686	0.8786399993381852
protein_350	     8	15.99943	0.0000000000000000	A    	0.2959921901644686	0.8786399993381852
protein_351	     7	14.00672	0.0000000000000000	A    	0.3249998524031035	0.7112799996555186
protein_352	     1	1.007947	0.0000000000000000	A    	0.1069078461720523	0.06568880001765333
protein_353	     6	12.01078	0.0000000000000000	A    	0.339966950845074	0.4577295996474049
protein_354	     1	1.007947	0.0000000000000000	A    	0.2471353042642165	0.06568880041196259
protein_355	     6	12.01078	0.0000000000000000	A    	0.3399669507944831	0.3598240005370534
protein_356	     8	15.99943	0.0000000000000000	A    	0.2959921901644686	0.8786399993381852
protein_357	     6	12.01078	0.0000000000000000	A    	0.339966950845074	0.4577295996474049
protein_358	     1	1.007947	0.0000000000000000	A    	0.2649532787260222	0.06568880010977264
protein_359	     1	1.007947	0.0000000000000000	A    	0.2649532787260222	0.06568880010977264
protein_360	     6	12.01078	0.0000000000000000	A    	0.339966950845074	0.4577295996474049
protein_361	     1	1.007947	0.0000000000000000	A    	0.2649532787260222	0.06568880010977264
protein_362	     1	1.007947	0.0000000000000000	A    	0.2649532787260222	0.06568880010977264
protein_363	     6	12.01078	0.0000000000000000	A    	0.339966950845074	0.4577295996474049
protein_364	     1	1.007947	0.0000000000000000	A    	0.2471353042642165	0.06568880041196259
protein_365	     1	1.007947	0.0000000000000000	A    	0.2471353042642165	0.06568880041196259
protein_366	     7	14.00672	0.0000000000000000	A    	0.3249998524031035	0.7112799996555186
protein_367	     1	1.007947	0.0000000000000000	A    	0.1069078461720523	0.06568880001765333
protein_368	     6	12.01078	0.0000000000000000	A    	0.3399669507944831	0.3598240005370534
protein_369	     7	14.00672	0.0000000000000000	A    	0.3249998524031035	0.7112799996555186
protein_370	     1	1.007947	0.0000000000000000	A    	0.1069078461720523	0.06568880001765333
protein_371	     1	1.007947	0.0000000000000000	A    	0.1069078461720523	0.06568880001765333
protein_372	     7	14.00672	0.0000000000000000	A    	0.3249998524031035	0.7112799996555186
protein_373	     1	1.007947	0.0000000000000000	A    	0.1069078461720523	0.06568880001765333
protein_374	     1	1.007947	0.0000000000000000	A    	0.1069078461720523	0.06568880001765333
protein_375	     7	14.00672	0.0000000000000000	A    	0.3249998524031035	0.7112799996555186
protein_376	     1	1.007947	0.0000000000000000	A    	0.1069078461720523	0.06568880001765333
protein_377	     6	12.01078	0.0000000000000000	A    	0.339966950845074	0.4577295996474049
protein_378	     1	1.007947	0.0000000000000000	A    	0.2471353042642165	0.06568880041196259
protein_379	     6	12.01078	0.0000000000000000	A    	0.3399669507944831	0.3598240005370534
protein_380	     8	15.99943	0.0000000000000000	A    	0.2959921901644686	0.8786399993381852
protein_381	     6	12.01078	0.0000000000000000	A    	0.339966950845074	0.4577295996474049
protein_382	     1	1.007947	0.0000000000000000	A    	0.2649532787260222	0.06568880010977264
protein_383	     1	1.007947	0.0000000000000000	A    	0.2649532787260222	0.06568880010977264
protein_384	     6	12.01078	0.0000000000000000	A    	0.339966950845074	0.4577295996474049
protein_385	     1	1.007947	0.0000000000000000	A    	0.2649532787260222	0.06568880010977264
protein_386	     6	12.01078	0.0000000000000000	A    	0.339966950845074	0.4577295996474049
protein_387	     1	1.007947	0.0000000000000000	A    	0.2649532787260222	0.06568880010977264
protein_388	     1	1.007947	0.0000000000000000	A    	0.2649532787260222	0.06568880010977264
protein_389	     1	1.007947	0.0000000000000000	A    	0.2649532787260222	0.06568880010977264
protein_390	     6	12.01078	0.0000000000000000	A    	0.339966950845074	0.4577295996474049
protein_391	     1	1.007947	0.0000000000000000	A    	0.2649532787260222	0.06568880010977264
protein_392	     1	1.007947	0.0000000000000000	A    	0.2649532787260222	0.06568880010977264
protein_393	     1	1.007947	0.0000000000000000	A    	0.2649532787260222	0.06568880010977264
protein_394	     7	14.00672	0.0000000000000000	A    	0.3249998524031035	0.7112799996555186
protein_395	     1	1.007947	0.0000000000000000	A    	0.1069078461720523	0.06568880001765333
protein_396	     6	12.01078	0.0000000000000000	A    	0.339966950845074	0.4577295996474049
protein_397	     1	1.007947	0.0000000000000000	A    	0.2471353042642165	0.06568880041196259
protein_398	     6	12.01078	0.0000000000000000	A    	0.3399669507944831	0.3598240005370534
protein_399	     8	15.99943	0.0000000000000000	A    	0.2959921901644686	0.8786399993381852
protein_400	     6	12.01078	0.0000000000000000	A    	0.339966950845074	0.4577295996474049
protein_401	     1	1.007947	0.0000000000000000	A    	0.2649532787260222	0.06568880010977264
protein_402	     1	1.007947	0.0000000000000000	A    	0.2649532787260222	0.06568880010977264
protein_403	     6	12.01078	0.0000000000000000	A    	0.339966950845074	0.4577295996474049
protein_404	     1	1.007947	0.0000000000000000	A    	0.2649532787260222	0.06568880010977264
protein_405	     6	12.01078	0.0000000000000000	A    	0.339966950845074	0.4577295996474049
protein_406	     1	1.007947	0.0000000000000000	A    	0.2649532787260222	0.06568880010977264
protein_407	     1	1.007947	0.0000000000000000	A    	0.2649532787260222	0.06568880010977264
protein_408	     1	1.007947	0.0000000000000000	A    	0.2649532787260222	0.06568880010977264
protein_409	     6	12.01078	0.0000000000000000	A    	0.339966950845074	0.4577295996474049
protein_410	     1	1.007947	0.0000000000000000	A    	0.2649532787260222	0.06568880010977264
protein_411	     1	1.007947	0.0000000000000000	A    	0.2649532787260222	0.06568880010977264
protein_412	     1	1.007947	0.0000000000000000	A    	0.2649532787260222	0.06568880010977264
protein_413	     7	14.00672	0.0000000000000000	A    	0.3249998524031035	0.7112799996555186
protein_414	     1	1.007947	0.0000000000000000	A    	0.1069078461720523	0.06568880001765333
protein_415	     6	12.01078	0.0000000000000000	A    	0.339966950845074	0.4577295996474049
protein_416	     1	1.007947	0.0000000000000000	A    	0.2471353042642165	0.06568880041196259
protein_417	     6	12.01078	0.0000000000000000	A    	0.3399669507944831	0.3598240005370534
protein_418	     8	15.99943	0.0000000000000000	A    	0.2959921901644686	0.8786399993381852
protein_419	     6	12.01078	0.0000000000000000	A    	0.339966950845074	0.4577295996474049
protein_420	     1	1.007947	0.0000000000000000	A    	0.2649532787260222	0.06568880010977264
protein_421	     1	1.007947	0.0000000000000000	A    	0.2649532787260222	0.06568880010977264
protein_422	     6	12.01078	0.0000000000000000	A    	0.339966950845074	0.4577295996474049
protein_423	     1	1.007947	0.0000000000000000	A    	0.2649532787260222	0.06568880010977264
protein_424	     6	12.01078	0.0000000000000000	A    	0.339966950845074	0.4577295996474049
protein_425	     1	1.007947	0.0000000000000000	A    	0.2649532787260222	0.06568880010977264
protein_426	     1	1.007947	0.0000000000000000	A    	0.2649532787260222	0.06568880010977264
protein_427	     1	1.007947	0.0000000000000000	A    	0.2649532787260222	0.06568880010977264
protein_428	     6	12.01078	0.0000000000000000	A    	0.339966950845074	0.4577295996474049
protein_429	     1	1.007947	0.0000000000000000	A    	0.2649532787260222	0.06568880010977264
protein_430	     1	1.007947	0.0000000000000000	A    	0.2649532787260222	0.06568880010977264
protein_431	     1	1.007947	0.0000000000000000	A    	0.2649532787260222	0.06568880010977264
protein_432	     7	14.00672	0.0000000000000000	A    	0.3249998524031035	0.7112799996555186
protein_433	     1	1.007947	0.0000000000000000	A    	0.1069078461720523	0.06568880001765333
protein_434	     6	12.01078	0.0000000000000000	A    	0.339966950845074	0.4577295996474049
protein_435	     1	1.007947	0.0000000000000000	A    	0.2471353042642165	0.06568880041196259
protein_436	     6	12.01078	0.0000000000000000	A    	0.3399669507944831	0.3598240005370534
protein_437	     8	15.99943	0.0000000000000000	A    	0.2959921901644686	0.8786399993381852
protein_438	     6	12.01078	0.0000000000000000	A    	0.339966950845074	0.4577295996474049
protein_439	     1	1.007947	0.0000000000000000	A    	0.2649532787260222	0.06568880010977264
protein_440	     1	1.007947	0.0000000000000000	A    	0.2649532787260222	0.06568880010977264
protein_441	     6	12.01078	0.0000000000000000	A    	0.3399669507944831	0.3598240005370534
protein_442	     7	14.00672	0.0000000000000000	A    	0.3249998524031035	0.7112799996555186
protein_443	     1	1.007947	0.0000000000000000	A    	0.1069078461720523	0.06568880001765333
protein_444	     1	1.007947	0.0000000000000000	A    	0.1069078461720523	0.06568880001765333
protein_445	     8	15.99943	0.0000000000000000	A    	0.2959921901644686	0.8786399993381852
protein_446	     7	14.00672	0.0000000000000000	A    	0.3249998524031035	0.7112799996555186
protein_447	     1	1.007947	0.0000000000000000	A    	0.1069078461720523	0.06568880001765333
protein_448	     6	12.01078	0.0000000000000000	A    	0.339966950845074	0.4577295996474049
protein_449	     1	1.007947	0.0000000000000000	A    	0.2471353042642165	0.06568880041196259
protein_450	     6	12.01078	0.0000000000000000	A    	0.3399669507944831	0.3598240005370534
protein_451	     8	15.99943	0.0000000000000000	A    	0.2959921901644686	0.8786399993381852
protein_452	     6	12.01078	0.0000000000000000	A    	0.339966950845074	0.4577295996474049
protein_453	     1	1.007947	0.0000000000000000	A    	0.2649532787260222	0.06568880010977264
protein_454	     1	1.007947	0.0000000000000000	A    	0.2649532787260222	0.06568880010977264
protein_455	     1	1.007947	0.0000000000000000	A    	0.2649532787260222	0.06568880010977264
protein_456	     7	14.00672	0.0000000000000000	A    	0.3249998524031035	0.7112799996555186
protein_457	     1	1.007947	0.0000000000000000	A    	0.1069078461720523	0.06568880001765333
protein_458	     6	12.01078	0.0000000000000000	A    	0.339966950845074	0.4577295996474049
protein_459	     1	1.007947	0.0000000000000000	A    	0.2471353042642165	0.06568880041196259
protein_460	     6	12.01078	0.0000000000000000	A    	0.3399669507944831	0.3598240005370534
protein_461	     8	15.99943	0.0000000000000000	A    	0.2959921901644686	0.8786399993381852
protein_462	     6	12.01078	0.0000000000000000	A    	0.339966950845074	0.4577295996474049
protein_463	     1	1.007947	0.0000000000000000	A    	0.2649532787260222	0.06568880010977264
protein_464	     1	1.007947	0.0000000000000000	A    	0.2649532787260222	0.06568880010977264
protein_465	     6	12.01078	0.0000000000000000	A    	0.339966950845074	0.4577295996474049
protein_466	     1	1.007947	0.0000000000000000	A    	0.2649532787260222	0.06568880010977264
protein_467	     1	1.007947	0.0000000000000000	A    	0.2649532787260222	0.06568880010977264
protein_468	     6	12.01078	0.0000000000000000	A    	0.3399669507944831	0.3598240005370534
protein_469	     8	15.99943	0.0000000000000000	A    	0.2959921901644686	0.8786399993381852
protein_470	     8	15.99943	0.0000000000000000	A    	0.2959921901644686	0.8786399993381852
protein_471	     7	14.00672	0.0000000000000000	A    	0.3249998524031035	0.7112799996555186
protein_472	     1	1.007947	0.0000000000000000	A    	0.1069078461720523	0.06568880001765333
protein_473	     6	12.01078	0.0000000000000000	A    	0.339966950845074	0.4577295996474049
protein_474	     1	1.007947	0.0000000000000000	A    	0.2471353042642165	0.06568880041196259
protein_475	     6	12.01078	0.0000000000000000	A    	0.3399669507944831	0.3598240005370534
protein_476	     8	15.99943	0.0000000000000000	A    	0.2959921901644686	0.8786399993381852
protein_477	     6	12.01078	0.0000000000000000	A    	0.339966950845074	0.4577295996474049
protein_478	     1	1.007947	0.0000000000000000	A    	0.2649532787260222	0.06568880010977264
protein_479	     1	1.007947	0.0000000000000000	A    	0.2649532787260222	0.06568880010977264
protein_480	     6	12.01078	0.0000000000000000	A    	0.3399669507944831	0.3598240005370534
protein_481	     7	14.00672	0.0000000000000000	A    	0.3249998524031035	0.7112799996555186
protein_482	     1	1.007947	0.0000000000000000	A    	0.1069078461720523	0.06568880001765333
protein_483	     1	1.007947	0.0000000000000000	A    	0.1069078461720523	0.06568880001765333
protein_484	     8	15.99943	0.0000000000000000	A    	0.2959921901644686	0.8786399993381852
protein_485	     7	14.00672	0.0000000000000000	A    	0.3249998524031035	0.7112799996555186
protein_486	     6	12.01078	0.0000000000000000	A    	0.339966950845074	0.4577295996474049
protein_487	     1	1.007947	0.0000000000000000	A    	0.2471353042642165	0.06568880041196259
protein_488	     6	12.01078	0.0000000000000000	A    	0.3399669507944831	0.3598240005370534
protein_489	     8	15.99943	0.0000000000000000	A    	0.2959921901644686	0.8786399993381852
protein_490	     6	12.01078	0.0000000000000000	A    	0.339966950845074	0.4577295996474049
protein_491	     1	1.007947	0.0000000000000000	A    	0.2649532787260222	0.06568880010977264
protein_492	     1	1.007947	0.0000000000000000	A    	0.2649532787260222	0.06568880010977264
protein_493	     6	12.01078	0.0000000000000000	A    	0.339966950845074	0.4577295996474049
protein_494	     1	1.007947	0.0000000000000000	A    	0.2649532787260222	0.06568880010977264
protein_495	     1	1.007947	0.0000000000000000	A    	0.2649532787260222	0.06568880010977264
protein_496	     6	12.01078	0.0000000000000000	A    	0.339966950845074	0.4577295996474049
protein_497	     1	1.007947	0.0000000000000000	A    	0.2471353042642165	0.06568880041196259
protein_498	     1	1.007947	0.0000000000000000	A    	0.2471353042642165	0.06568880041196259
protein_499	     7	14.00672	0.0000000000000000	A    	0.3249998524031035	0.7112799996555186
protein_500	     1	1.007947	0.0000000000000000	A    	0.1069078461720523	0.06568880001765333
protein_501	     6	12.01078	0.0000000000000000	A    	0.339966950845074	0.4577295996474049
protein_502	     1	1.007947	0.0000000000000000	A    	0.2471353042642165	0.06568880041196259
protein_503	     6	12.01078	0.0000000000000000	A    	0.3399669507944831	0.3598240005370534
protein_504	     8	15.99943	0.0000000000000000	A    	0.2959921901644686	0.8786399993381852
protein_505	     6	12.01078	0.0000000000000000	A    	0.339966950845074	0.4577295996474049
protein_506	     1	1.007947	0.0000000000000000	A    	0.2649532787260222	0.06568880010977264
protein_507	     1	1.007947	0.0000000000000000	A    	0.2649532787260222	0.06568880010977264
protein_508	     6	12.01078	0.0000000000000000	A    	0.339966950845074	0.4577295996474049
protein_509	     1	1.007947	0.0000000000000000	A    	0.2649532787260222	0.06568880010977264
protein_510	     1	1.007947	0.0000000000000000	A    	0.2649532787260222	0.06568880010977264
protein_511	     6	12.01078	0.0000000000000000	A    	0.339966950845074	0.4577295996474049
protein_512	     1	1.007947	0.0000000000000000	A    	0.2471353042642165	0.06568880041196259
protein_513	     1	1.007947	0.0000000000000000	A    	0.2471353042642165	0.06568880041196259
protein_514	     7	14.00672	0.0000000000000000	A    	0.3249998524031035	0.7112799996555186
protein_515	     1	1.007947	0.0000000000000000	A    	0.1069078461720523	0.06568880001765333
protein_516	     6	12.01078	0.0000000000000000	A    	0.3399669507944831	0.3598240005370534
protein_517	     7	14.00672	0.0000000000000000	A    	0.3249998524031035	0.7112799996555186
protein_518	     1	1.007947	0.0000000000000000	A    	0.1069078461720523	0.06568880001765333
protein_519	     1	1.007947	0.0000000000000000	A    	0.1069078461720523	0.06568880001765333
protein_520	     7	14.00672	0.0000000000000000	A    	0.3249998524031035	0.7112799996555186
protein_521	     1	1.007947	0.0000000000000000	A    	0.1069078461720523	0.06568880001765333
protein_522	     1	1.007947	0.0000000000000000	A    	0.1069078461720523	0.06568880001765333
protein_523	     7	14.00672	0.0000000000000000	A    	0.3249998524031035	0.7112799996555186
protein_524	     1	1.007947	0.0000000000000000	A    	0.1069078461720523	0.06568880001765333
protein_525	     6	12.01078	0.0000000000000000	A    	0.339966950845074	0.4577295996474049
protein_526	     1	1.007947	0.0000000000000000	A    	0.2471353042642165	0.06568880041196259
protein_527	     1	1.007947	0.0000000000000000	A    	0.2471353042642165	0.06568880041196259
protein_528	     6	12.01078	0.0000000000000000	A    	0.3399669507944831	0.3598240005370534
protein_529	     8	15.99943	0.0000000000000000	A    	0.2959921901644686	0.8786399993381852
protein_530	     7	14.00672	0.0000000000000000	A    	0.3249998524031035	0.7112799996555186
protein_531	     1	1.007947	0.0000000000000000	A    	0.1069078461720523	0.06568880001765333
protein_532	     6	12.01078	0.0000000000000000	A    	0.339966950845074	0.4577295996474049
protein_533	     1	1.007947	0.0000000000000000	A    	0.2471353042642165	0.06568880041196259
protein_534	     6	12.01078	0.0000000000000000	A    	0.3399669507944831	0.3598240005370534
protein_535	     8	15.99943	0.0000000000000000	A    	0.2959921901644686	0.8786399993381852
protein_536	     6	12.01078	0.0000000000000000	A    	0.339966950845074	0.4577295996474049
protein_537	     1	1.007947	0.0000000000000000	A    	0.2471353042642165	0.06568880041196259
protein_538	     6	12.01078	0.0000000000000000	A    	0.339966950845074	0.4577295996474049
protein_539	     1	1.007947	0.0000000000000000	A    	0.2649532787260222	0.06568880010977264
protein_540	     1	1.007947	0.0000000000000000	A    	0.2649532787260222	0.06568880010977264
protein_541	     1	1.007947	0.0000000000000000	A    	0.2649532787260222	0.06568880010977264
protein_542	     8	15.99943	0.0000000000000000	A    	0.3066473387458142	0.8803136010405576
protein_543	     1	1.007947	0.0000000000000000	A    	0	0
protein_544	     7	14.00672	0.0000000000000000	A    	0.3249998524031035	0.7112799996555186
protein_545	     1	1.007947	0.0000000000000000	A    	0.1069078461720523	0.06568880001765333
protein_546	     6	12.01078	0.0000000000000000	A    	0.339966950845074	0.4577295996474049
protein_547	     1	1.007947	0.0000000000000000	A    	0.2471353042642165	0.06568880041196259
protein_548	     6	12.01078	0.0000000000000000	A    	0.3399669507944831	0.3598240005370534
protein_549	     8	15.99943	0.0000000000000000	A    	0.2959921901644686	0.8786399993381852
protein_550	     6	12.01078	0.0000000000000000	A    	0.339966950845074	0.4577295996474049
protein_551	     1	1.007947	0.0000000000000000	A    	0.2649532787260222	0.06568880010977264
protein_552	     1	1.007947	0.0000000000000000	A    	0.2649532787260222	0.06568880010977264
protein_553	     6	12.01078	0.0000000000000000	A    	0.3399669507944831	0.3598240005370534
protein_554	     6	12.01078	0.0000000000000000	A    	0.3399669507944831	0.3598240005370534
protein_555	     1	1.007947	0.0000000000000000	A    	0.2599642458735085	0.06276000026869927
protein_556	     6	12.01078	0.0000000000000000	A    	0.3399669507944831	0.3598240005370534
protein_557	     1	1.007947	0.0000000000000000	A    	0.2599642458735085	0.06276000026869927
protein_558	     6	12.01078	0.0000000000000000	A    	0.3399669507944831	0.3598240005370534
protein_559	     1	1.007947	0.0000000000000000	A    	0.2599642458735085	0.06276000026869927
protein_560	     6	12.01078	0.0000000000000000	A    	0.3399669507944831	0.3598240005370534
protein_561	     1	1.007947	0.0000000000000000	A    	0.2599642458735085	0.06276000026869927
protein_562	     6	12.01078	0.0000000000000000	A    	0.3399669507944831	0.3598240005370534
protein_563	     1	1.007947	0.0000000000000000	A    	0.2599642458735085	0.06276000026869927
protein_564	     7	14.00672	0.0000000000000000	A    	0.3249998524031035	0.7112799996555186
protein_565	     1	1.007947	0.0000000000000000	A    	0.1069078461720523	0.06568880001765333
protein_566	     6	12.01078	0.0000000000000000	A    	0.339966950845074	0.4577295996474049
protein_567	     1	1.007947	0.0000000000000000	A    	0.2471353042642165	0.06568880041196259
protein_568	     6	12.01078	0.0000000000000000	A    	0.3399669507944831	0.3598240005370534
protein_569	     8	15.99943	0.0000000000000000	A    	0.2959921901644686	0.8786399993381852
protein_570	     6	12.01078	0.0000000000000000	A    	0.339966950845074	0.4577295996474049
protein_571	     1	1.007947	0.0000000000000000	A    	0.2649532787260222	0.06568880010977264
protein_572	     1	1.007947	0.0000000000000000	A    	0.2649532787260222	0.06568880010977264
protein_573	     6	12.01078	0.0000000000000000	A    	0.339966950845074	0.4577295996474049
protein_574	     1	1.007947	0.0000000000000000	A    	0.2649532787260222	0.06568880010977264
protein_575	     6	12.01078	0.0000000000000000	A    	0.339966950845074	0.4577295996474049
protein_576	     1	1.007947	0.0000000000000000	A    	0.2649532787260222	0.06568880010977264
protein_577	     1	1.007947	0.0000000000000000	A    	0.2649532787260222	0.06568880010977264
protein_578	     1	1.007947	0.0000000000000000	A    	0.2649532787260222	0.06568880010977264
protein_579	     6	12.01078	0.0000000000000000	A    	0.339966950845074	0.4577295996474049
protein_580	     1	1.007947	0.0000000000000000	A    	0.2649532787260222	0.06568880010977264
protein_581	     1	1.007947	0.0000000000000000	A    	0.2649532787260222	0.06568880010977264
protein_582	     1	1.007947	0.0000000000000000	A    	0.2649532787260222	0.06568880010977264
protein_583	     7	14.00672	0.0000000000000000	A    	0.3249998524031035	0.7112799996555186
protein_584	     1	1.007947	0.0000000000000000	A    	0.1069078461720523	0.06568880001765333
protein_585	     6	12.01078	0.0000000000000000	A    	0.339966950845074	0.4577295996474049
protein_586	     1	1.007947	0.0000000000000000	A    	0.2471353042642165	0.06568880041196259
protein_587	     6	12.01078	0.0000000000000000	A    	0.3399669507944831	0.3598240005370534
protein_588	     8	15.99943	0.0000000000000000	A    	0.2959921901644686	0.8786399993381852
protein_589	     6	12.01078	0.0000000000000000	A    	0.339966950845074	0.4577295996474049
protein_590	     1	1.007947	0.0000000000000000	A    	0.2649532787260222	0.06568880010977264
protein_591	     6	12.01078	0.0000000000000000	A    	0.339966950845074	0.4577295996474049
protein_592	     1	1.007947	0.0000000000000000	A    	0.2649532787260222	0.06568880010977264
protein_593	     1	1.007947	0.0000000000000000	A    	0.2649532787260222	0.06568880010977264
protein_594	     1	1.007947	0.0000000000000000	A    	0.2649532787260222	0.06568880010977264
protein_595	     6	12.01078	0.0000000000000000	A    	0.339966950845074	0.4577295996474049
protein_596	     1	1.007947	0.0000000000000000	A    	0.2649532787260222	0.06568880010977264
protein_597	     1	1.007947	0.0000000000000000	A    	0.2649532787260222	0.06568880010977264
protein_598	     1	1.007947	0.0000000000000000	A    	0.2649532787260222	0.06568880010977264
protein_599	     7	14.00672	0.0000000000000000	A    	0.3249998524031035	0.7112799996555186
protein_600	     1	1.007947	0.0000000000000000	A    	0.1069078461720523	0.06568880001765333
protein_601	     6	12.01078	0.0000000000000000	A    	0.339966950845074	0.4577295996474049
protein_602	     1	1.007947	0.0000000000000000	A    	0.2471353042642165	0.06568880041196259
protein_603	     6	12.01078	0.0000000000000000	A    	0.3399669507944831	0.3598240005370534
protein_604	     8	15.99943	0.0000000000000000	A    	0.2959921901644686	0.8786399993381852
protein_605	     6	12.01078	0.0000000000000000	A    	0.339966950845074	0.4577295996474049
protein_606	     1	1.007947	0.0000000000000000	A    	0.2649532787260222	0.06568880010977264
protein_607	     1	1.007947	0.0000000000000000	A    	0.2649532787260222	0.06568880010977264
protein_608	     6	12.01078	0.0000000000000000	A    	0.339966950845074	0.4577295996474049
protein_609	     1	1.007947	0.0000000000000000	A    	0.2649532787260222	0.06568880010977264
protein_610	     1	1.007947	0.0000000000000000	A    	0.2649532787260222	0.06568880010977264
protein_611	     6	12.01078	0.0000000000000000	A    	0.339966950845074	0.4577295996474049
protein_612	     1	1.007947	0.0000000000000000	A    	0.2471353042642165	0.06568880041196259
protein_613	     1	1.007947	0.0000000000000000	A    	0.2471353042642165	0.06568880041196259
protein_614	     7	14.00672	0.0000000000000000	A    	0.3249998524031035	0.7112799996555186
protein_615	     1	1.007947	0.0000000000000000	A    	0.1069078461720523	0.06568880001765333
protein_616	     6	12.01078	0.0000000000000000	A    	0.3399669507944831	0.3598240005370534
protein_617	     7	14.00672	0.0000000000000000	A    	0.3249998524031035	0.7112799996555186
protein_618	     1	1.007947	0.0000000000000000	A    	0.1069078461720523	0.06568880001765333
protein_619	     1	1.007947	0.0000000000000000	A    	0.1069078461720523	0.06568880001765333
protein_620	     7	14.00672	0.0000000000000000	A    	0.3249998524031035	0.7112799996555186
protein_621	     1	1.007947	0.0000000000000000	A    	0.1069078461720523	0.06568880001765333
protein_622	     1	1.007947	0.0000000000000000	A    	0.1069078461720523	0.06568880001765333
protein_623	     7	14.00672	0.0000000000000000	A    	0.3249998524031035	0.7112799996555186
protein_624	     1	1.007947	0.0000000000000000	A    	0.1069078461720523	0.06568880001765333
protein_625	     6	12.01078	0.0000000000000000	A    	0.339966950845074	0.4577295996474049
protein_626	     1	1.007947	0.0000000000000000	A    	0.2471353042642165	0.06568880041196259
protein_627	     6	12.01078	0.0000000000000000	A    	0.3399669507944831	0.3598240005370534
protein_628	     8	15.99943	0.0000000000000000	A    	0.2959921901644686	0.8786399993381852
protein_629	     6	12.01078	0.0000000000000000	A    	0.339966950845074	0.4577295996474049
protein_630	     1	1.007947	0.0000000000000000	A    	0.2649532787260222	0.06568880010977264
protein_631	     1	1.007947	0.0000000000000000	A    	0.2649532787260222	0.06568880010977264
protein_632	     6	12.01078	0.0000000000000000	A    	0.339966950845074	0.4577295996474049
protein_633	     1	1.007947	0.0000000000000000	A    	0.2649532787260222	0.06568880010977264
protein_634	     1	1.007947	0.0000000000000000	A    	0.2649532787260222	0.06568880010977264
protein_635	     6	12.01078	0.0000000000000000	A    	0.3399669507944831	0.3598240005370534
protein_636	     8	15.99943	0.0000000000000000	A    	0.2959921901644686	0.8786399993381852
protein_637	     8	15.99943	0.0000000000000000	A    	0.2959921901644686	0.8786399993381852
protein_638	     7	14.00672	0.0000000000000000	A    	0.3249998524031035	0.7112799996555186
protein_639	     1	1.007947	0.0000000000000000	A    	0.1069078461720523	0.06568880001765333
protein_640	     6	12.01078	0.0000000000000000	A    	0.339966950845074	0.4577295996474049
protein_641	     1	1.007947	0.0000000000000000	A    	0.2471353042642165	0.06568880041196259
protein_642	     6	12.01078	0.0000000000000000	A    	0.3399669507944831	0.3598240005370534
protein_643	     8	15.99943	0.0000000000000000	A    	0.2959921901644686	0.8786399993381852
protein_644	     6	12.01078	0.0000000000000000	A    	0.339966950845074	0.4577295996474049
protein_645	     1	1.007947	0.0000000000000000	A    	0.2471353042642165	0.06568880041196259
protein_646	     1	1.007947	0.0000000000000000	A    	0.2471353042642165	0.06568880041196259
protein_647	     8	15.99943	0.0000000000000000	A    	0.3066473387458142	0.8803136010405576
protein_648	     1	1.007947	0.0000000000000000	A    	0	0
protein_649	     7	14.00672	0.0000000000000000	A    	0.3249998524031035	0.7112799996555186
protein_650	     1	1.007947	0.0000000000000000	A    	0.1069078461720523	0.06568880001765333
protein_651	     6	12.01078	0.0000000000000000	A    	0.339966950845074	0.4577295996474049
protein_652	     1	1.007947	0.0000000000000000	A    	0.2471353042642165	0.06568880041196259
protein_653	     6	12.01078	0.0000000000000000	A    	0.3399669507944831	0.3598240005370534
protein_654	     8	15.99943	0.0000000000000000	A    	0.2959921901644686	0.8786399993381852
protein_655	     6	12.01078	0.0000000000000000	A    	0.339966950845074	0.4577295996474049
protein_656	     1	1.007947	0.0000000000000000	A    	0.2649532787260222	0.06568880010977264
protein_657	     1	1.007947	0.0000000000000000	A    	0.2649532787260222	0.06568880010977264
protein_658	     6	12.01078	0.0000000000000000	A    	0.339966950845074	0.4577295996474049
protein_659	     1	1.007947	0.0000000000000000	A    	0.2649532787260222	0.06568880010977264
protein_660	     1	1.007947	0.0000000000000000	A    	0.2649532787260222	0.06568880010977264
protein_661	     6	12.01078	0.0000000000000000	A    	0.3399669507944831	0.3598240005370534
protein_662	     8	15.99943	0.0000000000000000	A    	0.2959921901644686	0.8786399993381852
protein_663	     8	15.99943	0.0000000000000000	A    	0.2959921901644686	0.8786399993381852
protein_664	     7	14.00672	0.0000000000000000	A    	0.3249998524031035	0.7112799996555186
protein_665	     1	1.007947	0.0000000000000000	A    	0.1069078461720523	0.06568880001765333
protein_666	     6	12.01078	0.0000000000000000	A    	0.339966950845074	0.4577295996474049
protein_667	     1	1.007947	0.0000000000000000	A    	0.2471353042642165	0.06568880041196259
protein_668	     6	12.01078	0.0000000000000000	A    	0.3399669507944831	0.3598240005370534
protein_669	     8	15.99943	0.0000000000000000	A    	0.2959921901644686	0.8786399993381852
protein_670	     6	12.01078	0.0000000000000000	A    	0.339966950845074	0.4577295996474049
protein_671	     1	1.007947	0.0000000000000000	A    	0.2471353042642165	0.06568880041196259
protein_672	     6	12.01078	0.0000000000000000	A    	0.339966950845074	0.4577295996474049
protein_673	     1	1.007947	0.0000000000000000	A    	0.2649532787260222	0.06568880010977264
protein_674	     1	1.007947	0.0000000000000000	A    	0.2649532787260222	0.06568880010977264
protein_675	     1	1.007947	0.0000000000000000	A    	0.2649532787260222	0.06568880010977264
protein_676	     8	15.99943	0.0000000000000000	A    	0.3066473387458142	0.8803136010405576
protein_677	     1	1.007947	0.0000000000000000	A    	0	0
protein_678	     7	14.00672	0.0000000000000000	A    	0.3249998524031035	0.7112799996555186
protein_679	     1	1.007947	0.0000000000000000	A    	0.1069078461720523	0.06568880001765333
protein_680	     6	12.01078	0.0000000000000000	A    	0.339966950845074	0.4577295996474049
protein_681	     1	1.007947	0.0000000000000000	A    	0.2471353042642165	0.06568880041196259
protein_682	     6	12.01078	0.0000000000000000	A    	0.3399669507944831	0.3598240005370534
protein_683	     8	15.99943	0.0000000000000000	A    	0.2959921901644686	0.8786399993381852
protein_684	     6	12.01078	0.0000000000000000	A    	0.339966950845074	0.4577295996474049
protein_685	     1	1.007947	0.0000000000000000	A    	0.2649532787260222	0.06568880010977264
protein_686	     6	12.01078	0.0000000000000000	A    	0.339966950845074	0.4577295996474049
protein_687	     1	1.007947	0.0000000000000000	A    	0.2649532787260222	0.06568880010977264
protein_688	     1	1.007947	0.0000000000000000	A    	0.2649532787260222	0.06568880010977264
protein_689	     1	1.007947	0.0000000000000000	A    	0.2649532787260222	0.06568880010977264
protein_690	     6	12.01078	0.0000000000000000	A    	0.339966950845074	0.4577295996474049
protein_691	     1	1.007947	0.0000000000000000	A    	0.2649532787260222	0.06568880010977264
protein_692	     1	1.007947	0.0000000000000000	A    	0.2649532787260222	0.06568880010977264
protein_693	     1	1.007947	0.0000000000000000	A    	0.2649532787260222	0.06568880010977264
protein_694	     7	14.00672	0.0000000000000000	A    	0.3249998524031035	0.7112799996555186
protein_695	     1	1.007947	0.0000000000000000	A    	0.1069078461720523	0.06568880001765333
protein_696	     6	12.01078	0.0000000000000000	A    	0.339966950845074	0.4577295996474049
protein_697	     1	1.007947	0.0000000000000000	A    	0.2471353042642165	0.06568880041196259
protein_698	     6	12.01078	0.0000000000000000	A    	0.3399669507944831	0.3598240005370534
protein_699	     8	15.99943	0.0000000000000000	A    	0.2959921901644686	0.8786399993381852
protein_700	     6	12.01078	0.0000000000000000	A    	0.339966950845074	0.4577295996474049
protein_701	     1	1.007947	0.0000000000000000	A    	0.2649532787260222	0.06568880010977264
protein_702	     1	1.007947	0.0000000000000000	A    	0.2649532787260222	0.06568880010977264
protein_703	     6	12.01078	0.0000000000000000	A    	0.339966950845074	0.4577295996474049
protein_704	     1	1.007947	0.0000000000000000	A    	0.2649532787260222	0.06568880010977264
protein_705	     1	1.007947	0.0000000000000000	A    	0.2649532787260222	0.06568880010977264
protein_706	     6	12.01078	0.0000000000000000	A    	0.339966950845074	0.4577295996474049
protein_707	     1	1.007947	0.0000000000000000	A    	0.2649532787260222	0.06568880010977264
protein_708	     1	1.007947	0.0000000000000000	A    	0.2649532787260222	0.06568880010977264
protein_709	     6	12.01078	0.0000000000000000	A    	0.339966950845074	0.4577295996474049
protein_710	     1	1.007947	0.0000000000000000	A    	0.1959977179007358	0.06568880026244604
protein_711	     1	1.007947	0.0000000000000000	A    	0.1959977179007358	0.06568880026244604
protein_712	     7	14.00672	0.0000000000000000	A    	0.3249998524031035	0.7112799996555186
protein_713	     1	1.007947	0.0000000000000000	A    	0.1069078461720523	0.06568880001765333
protein_714	     1	1.007947	0.0000000000000000	A    	0.1069078461720523	0.06568880001765333
protein_715	     1	1.007947	0.0000000000000000	A    	0.1069078461720523	0.06568880001765333
protein_716	     7	14.00672	0.0000000000000000	A    	0.3249998524031035	0.7112799996555186
protein_717	     1	1.007947	0.0000000000000000	A    	0.1069078461720523	0.06568880001765333
protein_718	     6	12.01078	0.0000000000000000	A    	0.339966950845074	0.4577295996474049
protein_719	     1	1.007947	0.0000000000000000	A    	0.2471353042642165	0.06568880041196259
protein_720	     1	1.007947	0.0000000000000000	A    	0.2471353042642165	0.06568880041196259
protein_721	     6	12.01078	0.0000000000000000	A    	0.3399669507944831	0.3598240005370534
protein_722	     8	15.99943	0.0000000000000000	A    	0.2959921901644686	0.8786399993381852
protein_723	     7	14.00672	0.0000000000000000	A    	0.3249998524031035	0.7112799996555186
protein_724	     1	1.007947	0.0000000000000000	A    	0.1069078461720523	0.06568880001765333
protein_725	     6	12.01078	0.0000000000000000	A    	0.339966950845074	0.4577295996474049
protein_726	     1	1.007947	0.0000000000000000	A    	0.2471353042642165	0.06568880041196259
protein_727	     6	12.01078	0.0000000000000000	A    	0.3399669507944831	0.3598240005370534
protein_728	     8	15.99943	0.0000000000000000	A    	0.2959921901644686	0.8786399993381852
protein_729	     6	12.01078	0.0000000000000000	A    	0.339966950845074	0.4577295996474049
protein_730	     1	1.007947	0.0000000000000000	A    	0.2649532787260222	0.06568880010977264
protein_731	     1	1.007947	0.0000000000000000	A    	0.2649532787260222	0.06568880010977264
protein_732	     1	1.007947	0.0000000000000000	A    	0.2649532787260222	0.06568880010977264
protein_733	     7	14.00672	0.0000000000000000	A    	0.3249998524031035	0.7112799996555186
protein_734	     1	1.007947	0.0000000000000000	A    	0.1069078461720523	0.06568880001765333
protein_735	     6	12.01078	0.0000000000000000	A    	0.339966950845074	0.4577295996474049
protein_736	     1	1.007947	0.0000000000000000	A    	0.2471353042642165	0.06568880041196259
protein_737	     6	12.01078	0.0000000000000000	A    	0.3399669507944831	0.3598240005370534
protein_738	     8	15.99943	0.0000000000000000	A    	0.2959921901644686	0.8786399993381852
protein_739	     6	12.01078	0.0000000000000000	A    	0.339966950845074	0.4577295996474049
protein_740	     1	1.007947	0.0000000000000000	A    	0.2649532787260222	0.06568880010977264
protein_741	     1	1.007947	0.0000000000000000	A    	0.2649532787260222	0.06568880010977264
protein_742	     6	12.01078	0.0000000000000000	A    	0.3399669507944831	0.3598240005370534
protein_743	     6	12.01078	0.0000000000000000	A    	0.3399669507944831	0.3598240005370534
protein_744	     1	1.007947	0.0000000000000000	A    	0.2599642458735085	0.06276000026869927
protein_745	     6	12.01078	0.0000000000000000	A    	0.3399669507944831	0.3598240005370534
protein_746	     1	1.007947	0.0000000000000000	A    	0.2599642458735085	0.06276000026869927
protein_747	     6	12.01078	0.0000000000000000	A    	0.3399669507944831	0.3598240005370534
protein_748	     1	1.007947	0.0000000000000000	A    	0.2599642458735085	0.06276000026869927
protein_749	     6	12.01078	0.0000000000000000	A    	0.3399669507944831	0.3598240005370534
protein_750	     1	1.007947	0.0000000000000000	A    	0.2599642458735085	0.06276000026869927
protein_751	     6	12.01078	0.0000000000000000	A    	0.3399669507944831	0.3598240005370534
protein_752	     8	15.99943	0.0000000000000000	A    	0.3066473387458142	0.8803136010405576
protein_753	     1	1.007947	0.0000000000000000	A    	0	0
protein_754	     7	14.00672	0.0000000000000000	A    	0.3249998524031035	0.7112799996555186
protein_755	     1	1.007947	0.0000000000000000	A    	0.1069078461720523	0.06568880001765333
protein_756	     6	12.01078	0.0000000000000000	A    	0.339966950845074	0.4577295996474049
protein_757	     1	1.007947	0.0000000000000000	A    	0.2471353042642165	0.06568880041196259
protein_758	     6	12.01078	0.0000000000000000	A    	0.3399669507944831	0.3598240005370534
protein_759	     8	15.99943	0.0000000000000000	A    	0.2959921901644686	0.8786399993381852
protein_760	     6	12.01078	0.0000000000000000	A    	0.339966950845074	0.4577295996474049
protein_761	     1	1.007947	0.0000000000000000	A    	0.2649532787260222	0.06568880010977264
protein_762	     1	1.007947	0.0000000000000000	A    	0.2649532787260222	0.06568880010977264
protein_763	     1	1.007947	0.0000000000000000	A    	0.2649532787260222	0.06568880010977264
protein_764	     7	14.00672	0.0000000000000000	A    	0.3249998524031035	0.7112799996555186
protein_765	     1	1.007947	0.0000000000000000	A    	0.1069078461720523	0.06568880001765333
protein_766	     6	12.01078	0.0000000000000000	A    	0.339966950845074	0.4577295996474049
protein_767	     1	1.007947	0.0000000000000000	A    	0.2471353042642165	0.06568880041196259
protein_768	     6	12.01078	0.0000000000000000	A    	0.3399669507944831	0.3598240005370534
protein_769	     8	15.99943	0.0000000000000000	A    	0.2959921901644686	0.8786399993381852
protein_770	     6	12.01078	0.0000000000000000	A    	0.339966950845074	0.4577295996474049
protein_771	     1	1.007947	0.0000000000000000	A    	0.2649532787260222	0.06568880010977264
protein_772	     1	1.007947	0.0000000000000000	A    	0.2649532787260222	0.06568880010977264
protein_773	     6	12.01078	0.0000000000000000	A    	0.339966950845074	0.4577295996474049
protein_774	     1	1.007947	0.0000000000000000	A    	0.2649532787260222	0.06568880010977264
protein_775	     6	12.01078	0.0000000000000000	A    	0.339966950845074	0.4577295996474049
protein_776	     1	1.007947	0.0000000000000000	A    	0.2649532787260222	0.06568880010977264
protein_777	     1	1.007947	0.0000000000000000	A    	0.2649532787260222	0.06568880010977264
protein_778	     1	1.007947	0.0000000000000000	A    	0.2649532787260222	0.06568880010977264
protein_779	     6	12.01078	0.0000000000000000	A    	0.339966950845074	0.4577295996474049
protein_780	     1	1.007947	0.0000000000000000	A    	0.2649532787260222	0.06568880010977264
protein_781	     1	1.007947	0.0000000000000000	A    	0.2649532787260222	0.06568880010977264
protein_782	     1	1.007947	0.0000000000000000	A    	0.2649532787260222	0.06568880010977264
protein_783	     7	14.00672	0.0000000000000000	A    	0.3249998524031035	0.7112799996555186
protein_784	     1	1.007947	0.0000000000000000	A    	0.1069078461720523	0.06568880001765333
protein_785	     6	12.01078	0.0000000000000000	A    	0.339966950845074	0.4577295996474049
protein_786	     1	1.007947	0.0000000000000000	A    	0.2471353042642165	0.06568880041196259
protein_787	     6	12.01078	0.0000000000000000	A    	0.3399669507944831	0.3598240005370534
protein_788	     8	15.99943	0.0000000000000000	A    	0.2959921901644686	0.8786399993381852
protein_789	     6	12.01078	0.0000000000000000	A    	0.339966950845074	0.4577295996474049
protein_790	     1	1.007947	0.0000000000000000	A    	0.2471353042642165	0.06568880041196259
protein_791	     1	1.007947	0.0000000000000000	A    	0.2471353042642165	0.06568880041196259
protein_792	     8	15.99943	0.0000000000000000	A    	0.3066473387458142	0.8803136010405576
protein_793	     1	1.007947	0.0000000000000000	A    	0	0
protein_794	     7	14.00672	0.0000000000000000	A    	0.3249998524031035	0.7112799996555186
protein_795	     1	1.007947	0.0000000000000000	A    	0.1069078461720523	0.06568880001765333
protein_796	     6	12.01078	0.0000000000000000	A    	0.339966950845074	0.4577295996474049
protein_797	     1	1.007947	0.0000000000000000	A    	0.2471353042642165	0.06568880041196259
protein_798	     6	12.01078	0.0000000000000000	A    	0.3399669507944831	0.3598240005370534
protein_799	     8	15.99943	0.0000000000000000	A    	0.2959921901644686	0.8786399993381852
protein_800	     6	12.01078	0.0000000000000000	A    	0.339966950845074	0.4577295996474049
protein_801	     1	1.007947	0.0000000000000000	A    	0.2649532787260222	0.06568880010977264
protein_802	     6	12.01078	0.0000000000000000	A    	0.339966950845074	0.4577295996474049
protein_803	     1	1.007947	0.0000000000000000	A    	0.2649532787260222	0.06568880010977264
protein_804	     1	1.007947	0.0000000000000000	A    	0.2649532787260222	0.06568880010977264
protein_805	     1	1.007947	0.0000000000000000	A    	0.2649532787260222	0.06568880010977264
protein_806	     6	12.01078	0.0000000000000000	A    	0.339966950845074	0.4577295996474049
protein_807	     1	1.007947	0.0000000000000000	A    	0.2649532787260222	0.06568880010977264
protein_808	     1	1.007947	0.0000000000000000	A    	0.2649532787260222	0.06568880010977264
protein_809	     1	1.007947	0.0000000000000000	A    	0.2649532787260222	0.06568880010977264
protein_810	     7	14.00672	0.0000000000000000	A    	0.3249998524031035	0.7112799996555186
protein_811	     1	1.007947	0.0000000000000000	A    	0.1069078461720523	0.06568880001765333
protein_812	     6	12.01078	0.0000000000000000	A    	0.339966950845074	0.4577295996474049
protein_813	     1	1.007947	0.0000000000000000	A    	0.2471353042642165	0.06568880041196259
protein_814	     6	12.01078	0.0000000000000000	A    	0.3399669507944831	0.3598240005370534
protein_815	     8	15.99943	0.0000000000000000	A    	0.2959921901644686	0.8786399993381852
protein_816	     6	12.01078	0.0000000000000000	A    	0.339966950845074	0.4577295996474049
protein_817	     1	1.007947	0.0000000000000000	A    	0.2471353042642165	0.06568880041196259
protein_818	     1	1.007947	0.0000000000000000	A    	0.2471353042642165	0.06568880041196259
protein_819	     8	15.99943	0.0000000000000000	A    	0.3066473387458142	0.8803136010405576
protein_820	     1	1.007947	0.0000000000000000	A    	0	0
protein_821	     7	14.00672	0.0000000000000000	A    	0.3249998524031035	0.7112799996555186
protein_822	     1	1.007947	0.0000000000000000	A    	0.1069078461720523	0.06568880001765333
protein_823	     6	12.01078	0.0000000000000000	A    	0.339966950845074	0.4577295996474049
protein_824	     1	1.007947	0.0000000000000000	A    	0.2471353042642165	0.06568880041196259
protein_825	     6	12.01078	0.0000000000000000	A    	0.3399669507944831	0.3598240005370534
protein_826	     8	15.99943	0.0000000000000000	A    	0.2959921901644686	0.8786399993381852
protein_827	     6	12.01078	0.0000000000000000	A    	0.339966950845074	0.4577295996474049
protein_828	     1	1.007947	0.0000000000000000	A    	0.2649532787260222	0.06568880010977264
protein_829	     1	1.007947	0.0000000000000000	A    	0.2649532787260222	0.06568880010977264
protein_830	     6	12.01078	0.0000000000000000	A    	0.3399669507944831	0.3598240005370534
protein_831	     8	15.99943	0.0000000000000000	A    	0.2959921901644686	0.8786399993381852
protein_832	     8	15.99943	0.0000000000000000	A    	0.2959921901644686	0.8786399993381852
protein_833	     7	14.00672	0.0000000000000000	A    	0.3249998524031035	0.7112799996555186
protein_834	     1	1.007947	0.0000000000000000	A    	0.1069078461720523	0.06568880001765333
protein_835	     6	12.01078	0.0000000000000000	A    	0.339966950845074	0.4577295996474049
protein_836	     1	1.007947	0.0000000000000000	A    	0.2471353042642165	0.06568880041196259
protein_837	     6	12.01078	0.0000000000000000	A    	0.3399669507944831	0.3598240005370534
protein_838	     8	15.99943	0.0000000000000000	A    	0.2959921901644686	0.8786399993381852
protein_839	     6	12.01078	0.0000000000000000	A    	0.339966950845074	0.4577295996474049
protein_840	     1	1.007947	0.0000000000000000	A    	0.2649532787260222	0.06568880010977264
protein_841	     1	1.007947	0.0000000000000000	A    	0.2649532787260222	0.06568880010977264
protein_842	     6	12.01078	0.0000000000000000	A    	0.3399669507944831	0.3598240005370534
protein_843	     6	12.01078	0.0000000000000000	A    	0.3399669507944831	0.3598240005370534
protein_844	     1	1.007947	0.0000000000000000	A    	0.2599642458735085	0.06276000026869927
protein_845	     6	12.01078	0.0000000000000000	A    	0.3399669507944831	0.3598240005370534
protein_846	     1	1.007947	0.0000000000000000	A    	0.2599642458735085	0.06276000026869927
protein_847	     6	12.01078	0.0000000000000000	A    	0.3399669507944831	0.3598240005370534
protein_848	     1	1.007947	0.0000000000000000	A    	0.2599642458735085	0.06276000026869927
protein_849	     6	12.01078	0.0000000000000000	A    	0.3399669507944831	0.3598240005370534
protein_850	     1	1.007947	0.0000000000000000	A    	0.2599642458735085	0.06276000026869927
protein_851	     6	12.01078	0.0000000000000000	A    	0.3399669507944831	0.3598240005370534
protein_852	     1	1.007947	0.0000000000000000	A    	0.2599642458735085	0.06276000026869927
protein_853	     7	14.00672	0.0000000000000000	A    	0.3249998524031035	0.7112799996555186
protein_854	     1	1.007947	0.0000000000000000	A    	0.1069078461720523	0.06568880001765333
protein_855	     6	12.01078	0.0000000000000000	A    	0.339966950845074	0.4577295996474049
protein_856	     1	1.007947	0.0000000000000000	A    	0.2471353042642165	0.06568880041196259
protein_857	     6	12.01078	0.0000000000000000	A    	0.3399669507944831	0.3598240005370534
protein_858	     8	15.99943	0.0000000000000000	A    	0.2959921901644686	0.8786399993381852
protein_859	     6	12.01078	0.0000000000000000	A    	0.339966950845074	0.4577295996474049
protein_860	     1	1.007947	0.0000000000000000	A    	0.2649532787260222	0.06568880010977264
protein_861	     1	1.007947	0.0000000000000000	A    	0.2649532787260222	0.06568880010977264
protein_862	     6	12.01078	0.0000000000000000	A    	0.3399669507944831	0.3598240005370534
protein_863	     8	15.99943	0.0000000000000000	A    	0.2959921901644686	0.8786399993381852
protein_864	     8	15.99943	0.0000000000000000	A    	0.2959921901644686	0.8786399993381852
protein_865	     7	14.00672	0.0000000000000000	A    	0.3249998524031035	0.7112799996555186
protein_866	     1	1.007947	0.0000000000000000	A    	0.1069078461720523	0.06568880001765333
protein_867	     6	12.01078	0.0000000000000000	A    	0.339966950845074	0.4577295996474049
protein_868	     1	1.007947	0.0000000000000000	A    	0.2471353042642165	0.06568880041196259
protein_869	     6	12.01078	0.0000000000000000	A    	0.3399669507944831	0.3598240005370534
protein_870	     8	15.99943	0.0000000000000000	A    	0.2959921901644686	0.8786399993381852
protein_871	     6	12.01078	0.0000000000000000	A    	0.339966950845074	0.4577295996474049
protein_872	     1	1.007947	0.0000000000000000	A    	0.2649532787260222	0.06568880010977264
protein_873	     1	1.007947	0.0000000000000000	A    	0.2649532787260222	0.06568880010977264
protein_874	     6	12.01078	0.0000000000000000	A    	0.3399669507944831	0.3598240005370534
protein_875	     7	14.00672	0.0000000000000000	A    	0.3249998524031035	0.7112799996555186
protein_876	     1	1.007947	0.0000000000000000	A    	0.1069078461720523	0.06568880001765333
protein_877	     1	1.007947	0.0000000000000000	A    	0.1069078461720523	0.06568880001765333
protein_878	     8	15.99943	0.0000000000000000	A    	0.2959921901644686	0.8786399993381852
protein_879	     7	14.00672	0.0000000000000000	A    	0.3249998524031035	0.7112799996555186
protein_880	     1	1.007947	0.0000000000000000	A    	0.1069078461720523	0.06568880001765333
protein_881	     6	12.01078	0.0000000000000000	A    	0.339966950845074	0.4577295996474049
protein_882	     1	1.007947	0.0000000000000000	A    	0.2471353042642165	0.06568880041196259
protein_883	     6	12.01078	0.0000000000000000	A    	0.3399669507944831	0.3598240005370534
protein_884	     8	15.99943	0.0000000000000000	A    	0.2959921901644686	0.8786399993381852
protein_885	     6	12.01078	0.0000000000000000	A    	0.339966950845074	0.4577295996474049
protein_886	     1	1.007947	0.0000000000000000	A    	0.2649532787260222	0.06568880010977264
protein_887	     1	1.007947	0.0000000000000000	A    	0.2649532787260222	0.06568880010977264
protein_888	     1	1.007947	0.0000000000000000	A    	0.2649532787260222	0.06568880010977264
protein_889	     7	14.00672	0.0000000000000000	A    	0.3249998524031035	0.7112799996555186
protein_890	     1	1.007947	0.0000000000000000	A    	0.1069078461720523	0.06568880001765333
protein_891	     6	12.01078	0.0000000000000000	A    	0.339966950845074	0.4577295996474049
protein_892	     1	1.007947	0.0000000000000000	A    	0.2471353042642165	0.06568880041196259
protein_893	     6	12.01078	0.0000000000000000	A    	0.3399669507944831	0.3598240005370534
protein_894	     8	15.99943	0.0000000000000000	A    	0.2959921901644686	0.8786399993381852
protein_895	     6	12.01078	0.0000000000000000	A    	0.339966950845074	0.4577295996474049
protein_896	     1	1.007947	0.0000000000000000	A    	0.2649532787260222	0.06568880010977264
protein_897	     1	1.007947	0.0000000000000000	A    	0.2649532787260222	0.06568880010977264
protein_898	     6	12.01078	0.0000000000000000	A    	0.339966950845074	0.4577295996474049
protein_899	     1	1.007947	0.0000000000000000	A    	0.2649532787260222	0.06568880010977264
protein_900	     1	1.007947	0.0000000000000000	A    	0.2649532787260222	0.06568880010977264
protein_901	     6	12.01078	0.0000000000000000	A    	0.339966950845074	0.4577295996474049
protein_902	     1	1.007947	0.0000000000000000	A    	0.2649532787260222	0.06568880010977264
protein_903	     1	1.007947	0.0000000000000000	A    	0.2649532787260222	0.06568880010977264
protein_904	     6	12.01078	0.0000000000000000	A    	0.339966950845074	0.4577295996474049
protein_905	     1	1.007947	0.0000000000000000	A    	0.1959977179007358	0.06568880026244604
protein_906	     1	1.007947	0.0000000000000000	A    	0.1959977179007358	0.06568880026244604
protein_907	     7	14.00672	0.0000000000000000	A    	0.3249998524031035	0.7112799996555186
protein_908	     1	1.007947	0.0000000000000000	A    	0.1069078461720523	0.06568880001765333
protein_909	     1	1.007947	0.0000000000000000	A    	0.1069078461720523	0.06568880001765333
protein_910	     1	1.007947	0.0000000000000000	A    	0.1069078461720523	0.06568880001765333
protein_911	     7	14.00672	0.0000000000000000	A    	0.3249998524031035	0.7112799996555186
protein_912	     1	1.007947	0.0000000000000000	A    	0.1069078461720523	0.06568880001765333
protein_913	     6	12.01078	0.0000000000000000	A    	0.339966950845074	0.4577295996474049
protein_914	     1	1.007947	0.0000000000000000	A    	0.2471353042642165	0.06568880041196259
protein_915	     1	1.007947	0.0000000000000000	A    	0.2471353042642165	0.06568880041196259
protein_916	     6	12.01078	0.0000000000000000	A    	0.3399669507944831	0.3598240005370534
protein_917	     8	15.99943	0.0000000000000000	A    	0.2959921901644686	0.8786399993381852
protein_918	     7	14.00672	0.0000000000000000	A    	0.3249998524031035	0.7112799996555186
protein_919	     1	1.007947	0.0000000000000000	A    	0.1069078461720523	0.06568880001765333
protein_920	     6	12.01078	0.0000000000000000	A    	0.339966950845074	0.4577295996474049
protein_921	     1	1.007947	0.0000000000000000	A    	0.2471353042642165	0.06568880041196259
protein_922	     6	12.01078	0.0000000000000000	A    	0.3399669507944831	0.3598240005370534
protein_923	     8	15.99943	0.0000000000000000	A    	0.2959921901644686	0.8786399993381852
protein_924	     6	12.01078	0.0000000000000000	A    	0.339966950845074	0.4577295996474049
protein_925	     1	1.007947	0.0000000000000000	A    	0.2649532787260222	0.06568880010977264
protein_926	     1	1.007947	0.0000000000000000	A    	0.2649532787260222	0.06568880010977264
protein_927	     6	12.01078	0.0000000000000000	A    	0.339966950845074	0.4577295996474049
protein_928	     1	1.007947	0.0000000000000000	A    	0.2649532787260222	0.06568880010977264
protein_929	     6	12.01078	0.0000000000000000	A    	0.339966950845074	0.4577295996474049
protein_930	     1	1.007947	0.0000000000000000	A    	0.2649532787260222	0.06568880010977264
protein_931	     1	1.007947	0.0000000000000000	A    	0.2649532787260222	0.06568880010977264
protein_932	     1	1.007947	0.0000000000000000	A    	0.2649532787260222	0.06568880010977264
protein_933	     6	12.01078	0.0000000000000000	A    	0.339966950845074	0.4577295996474049
protein_934	     1	1.007947	0.0000000000000000	A    	0.2649532787260222	0.06568880010977264
protein_935	     1	1.007947	0.0000000000000000	A    	0.2649532787260222	0.06568880010977264
protein_936	     1	1.007947	0.0000000000000000	A    	0.2649532787260222	0.06568880010977264
protein_937	     7	14.00672	0.0000000000000000	A    	0.3249998524031035	0.7112799996555186
protein_938	     1	1.007947	0.0000000000000000	A    	0.1069078461720523	0.06568880001765333
protein_939	     6	12.01078	0.0000000000000000	A    	0.339966950845074	0.4577295996474049
protein_940	     1	1.007947	0.0000000000000000	A    	0.2471353042642165	0.06568880041196259
protein_941	     6	12.01078	0.0000000000000000	A    	0.3399669507944831	0.3598240005370534
protein_942	     8	15.99943	0.0000000000000000	A    	0.2959921901644686	0.8786399993381852
protein_943	     6	12.01078	0.0000000000000000	A    	0.339966950845074	0.4577295996474049
protein_944	     1	1.007947	0.0000000000000000	A    	0.2649532787260222	0.06568880010977264
protein_945	     1	1.007947	0.0000000000000000	A    	0.2649532787260222	0.06568880010977264
protein_946	     6	12.01078	0.0000000000000000	A    	0.3399669507944831	0.3598240005370534
protein_947	     7	14.00672	0.0000000000000000	A    	0.3249998524031035	0.7112799996555186
protein_948	     1	1.007947	0.0000000000000000	A    	0.1069078461720523	0.06568880001765333
protein_949	     1	1.007947	0.0000000000000000	A    	0.1069078461720523	0.06568880001765333
protein_950	     8	15.99943	0.0000000000000000	A    	0.2959921901644686	0.8786399993381852
protein_951	     7	14.00672	0.0000000000000000	A    	0.3249998524031035	0.7112799996555186
protein_952	     1	1.007947	0.0000000000000000	A    	0.1069078461720523	0.06568880001765333
protein_953	     6	12.01078	0.0000000000000000	A    	0.339966950845074	0.4577295996474049
protein_954	     1	1.007947	0.0000000000000000	A    	0.2471353042642165	0.06568880041196259
protein_955	     6	12.01078	0.0000000000000000	A    	0.3399669507944831	0.3598240005370534
protein_956	     8	15.99943	0.0000000000000000	A    	0.2959921901644686	0.8786399993381852
protein_957	     6	12.01078	0.0000000000000000	A    	0.339966950845074	0.4577295996474049
protein_958	     1	1.007947	0.0000000000000000	A    	0.2649532787260222	0.06568880010977264
protein_959	     6	12.01078	0.0000000000000000	A    	0.339966950845074	0.4577295996474049
protein_960	     1	1.007947	0.0000000000000000	A    	0.2649532787260222	0.06568880010977264
protein_961	     1	1.007947	0.0000000000000000	A    	0.2649532787260222	0.06568880010977264
protein_962	     1	1.007947	0.0000000000000000	A    	0.2649532787260222	0.06568880010977264
protein_963	     6	12.01078	0.0000000000000000	A    	0.339966950845074	0.4577295996474049
protein_964	     1	1.007947	0.0000000000000000	A    	0.2649532787260222	0.06568880010977264
protein_965	     1	1.007947	0.0000000000000000	A    	0.2649532787260222	0.06568880010977264
protein_966	     1	1.007947	0.0000000000000000	A    	0.2649532787260222	0.06568880010977264
protein_967	     7	14.00672	0.0000000000000000	A    	0.3249998524031035	0.7112799996555186
protein_968	     1	1.007947	0.0000000000000000	A    	0.1069078461720523	0.06568880001765333
protein_969	     6	12.01078	0.0000000000000000	A    	0.339966950845074	0.4577295996474049
protein_970	     1	1.007947	0.0000000000000000	A    	0.2471353042642165	0.06568880041196259
protein_971	     6	12.01078	0.0000000000000000	A    	0.3399669507944831	0.3598240005370534
protein_972	     8	15.99943	0.0000000000000000	A    	0.2959921901644686	0.8786399993381852
protein_973	     6	12.01078	0.0000000000000000	A    	0.339966950845074	0.4577295996474049
protein_974	     1	1.007947	0.0000000000000000	A    	0.2649532787260222	0.06568880010977264
protein_975	     1	1.007947	0.0000000000000000	A    	0.2649532787260222	0.06568880010977264
protein_976	     6	12.01078	0.0000000000000000	A    	0.339966950845074	0.4577295996474049
protein_977	     1	1.007947	0.0000000000000000	A    	0.2649532787260222	0.06568880010977264
protein_978	     1	1.007947	0.0000000000000000	A    	0.2649532787260222	0.06568880010977264
protein_979	     6	12.01078	0.0000000000000000	A    	0.339966950845074	0.4577295996474049
protein_980	     1	1.007947	0.0000000000000000	A    	0.2649532787260222	0.06568880010977264
protein_981	     1	1.007947	0.0000000000000000	A    	0.2649532787260222	0.06568880010977264
protein_982	     6	12.01078	0.0000000000000000	A    	0.339966950845074	0.4577295996474049
protein_983	     1	1.007947	0.0000000000000000	A    	0.1959977179007358	0.06568880026244604
protein_984	     1	1.007947	0.0000000000000000	A    	0.1959977179007358	0.06568880026244604
protein_985	     7	14.00672	0.0000000000000000	A    	0.3249998524031035	0.7112799996555186
protein_986	     1	1.007947	0.0000000000000000	A    	0.1069078461720523	0.06568880001765333
protein_987	     1	1.007947	0.0000000000000000	A    	0.1069078461720523	0.06568880001765333
protein_988	     1	1.007947	0.0000000000000000	A    	0.1069078461720523	0.06568880001765333
protein_989	     7	14.00672	0.0000000000000000	A    	0.3249998524031035	0.7112799996555186
protein_990	     1	1.007947	0.0000000000000000	A    	0.1069078461720523	0.06568880001765333
protein_991	     6	12.01078	0.0000000000000000	A    	0.339966950845074	0.4577295996474049
protein_992	     1	1.007947	0.0000000000000000	A    	0.2471353042642165	0.06568880041196259
protein_993	     6	12.01078	0.0000000000000000	A    	0.3399669507944831	0.3598240005370534
protein_994	     8	15.99943	0.0000000000000000	A    	0.2959921901644686	0.8786399993381852
protein_995	     6	12.01078	0.0000000000000000	A    	0.339966950845074	0.4577295996474049
protein_996	     1	1.007947	0.0000000000000000	A    	0.2649532787260222	0.06568880010977264
protein_997	     1	1.007947	0.0000000000000000	A    	0.2649532787260222	0.06568880010977264
protein_998	     6	12.01078	0.0000000000000000	A    	0.3399669507944831	0.3598240005370534
protein_999	     6	12.01078	0.0000000000000000	A    	0.3399669507944831	0.3598240005370534
protein_1000	     1	1.007947	0.0000000000000000	A    	0.2510552587583135	0.06275999996435834
protein_1001	     7	14.00672	0.0000000000000000	A    	0.3249998524031035	0.7112799996555186
protein_1002	     1	1.007947	0.0000000000000000	A    	0.1069078461720523	0.06568880001765333
protein_1003	     6	12.01078	0.0000000000000000	A    	0.3399669507944831	0.3598240005370534
protein_1004	     1	1.007947	0.0000000000000000	A    	0.2421462715456485	0.06276000013920789
protein_1005	     7	14.00672	0.0000000000000000	A    	0.3249998524031035	0.7112799996555186
protein_1006	     7	14.00672	0.0000000000000000	A    	0.3249998524031035	0.7112799996555186
protein_1007	     1	1.007947	0.0000000000000000	A    	0.1069078461720523	0.06568880001765333
protein_1008	     6	12.01078	0.0000000000000000	A    	0.339966950845074	0.4577295996474049
protein_1009	     1	1.007947	0.0000000000000000	A    	0.2471353042642165	0.06568880041196259
protein_1010	     6	12.01078	0.0000000000000000	A    	0.3399669507944831	0.3598240005370534
protein_1011	     8	15.99943	0.0000000000000000	A    	0.2959921901644686	0.8786399993381852
protein_1012	     6	12.01078	0.0000000000000000	A    	0.339966950845074	0.4577295996474049
protein_1013	     1	1.007947	0.0000000000000000	A    	0.2649532787260222	0.06568880010977264
protein_1014	     1	1.007947	0.0000000000000000	A    	0.2649532787260222	0.06568880010977264
protein_1015	     6	12.01078	0.0000000000000000	A    	0.3399669507944831	0.3598240005370534
protein_1016	     6	12.01078	0.0000000000000000	A    	0.3399669507944831	0.3598240005370534
protein_1017	     1	1.007947	0.0000000000000000	A    	0.2599642458735085	0.06276000026869927
protein_1018	     6	12.01078	0.0000000000000000	A    	0.3399669507944831	0.3598240005370534
protein_1019	     1	1.007947	0.0000000000000000	A    	0.2599642458735085	0.06276000026869927
protein_1020	     6	12.01078	0.0000000000000000	A    	0.3399669507944831	0.3598240005370534
protein_1021	     1	1.007947	0.0000000000000000	A    	0.2599642458735085	0.06276000026869927
protein_1022	     6	12.01078	0.0000000000000000	A    	0.3399669507944831	0.3598240005370534
protein_1023	     1	1.007947	0.0000000000000000	A    	0.2599642458735085	0.06276000026869927
protein_1024	     6	12.01078	0.0000000000000000	A    	0.3399669507944831	0.3598240005370534
protein_1025	     8	15.99943	0.0000000000000000	A    	0.3066473387458142	0.8803136010405576
protein_1026	     1	1.007947	0.0000000000000000	A    	0	0
protein_1027	     7	14.00672	0.0000000000000000	A    	0.3249998524031035	0.7112799996555186
protein_1028	     1	1.007947	0.0000000000000000	A    	0.1069078461720523	0.06568880001765333
protein_1029	     6	12.01078	0.0000000000000000	A    	0.339966950845074	0.4577295996474049
protein_1030	     1	1.007947	0.0000000000000000	A    	0.2471353042642165	0.06568880041196259
protein_1031	     6	12.01078	0.0000000000000000	A    	0.3399669507944831	0.3598240005370534
protein_1032	     8	15.99943	0.0000000000000000	A    	0.2959921901644686	0.8786399993381852
protein_1033	     6	12.01078	0.0000000000000000	A    	0.339966950845074	0.4577295996474049
protein_1034	     1	1.007947	0.0000000000000000	A    	0.2649532787260222	0.06568880010977264
protein_1035	     1	1.007947	0.0000000000000000	A    	0.2649532787260222	0.06568880010977264
protein_1036	     6	12.01078	0.0000000000000000	A    	0.339966950845074	0.4577295996474049
protein_1037	     1	1.007947	0.0000000000000000	A    	0.2649532787260222	0.06568880010977264
protein_1038	     6	12.01078	0.0000000000000000	A    	0.339966950845074	0.4577295996474049
protein_1039	     1	1.007947	0.0000000000000000	A    	0.2649532787260222	0.06568880010977264
protein_1040	     1	1.007947	0.0000000000000000	A    	0.2649532787260222	0.06568880010977264
protein_1041	     1	1.007947	0.0000000000000000	A    	0.2649532787260222	0.06568880010977264
protein_1042	     6	12.01078	0.0000000000000000	A    	0.339966950845074	0.4577295996474049
protein_1043	     1	1.007947	0.0000000000000000	A    	0.2649532787260222	0.06568880010977264
protein_1044	     1	1.007947	0.0000000000000000	A    	0.2649532787260222	0.06568880010977264
protein_1045	     1	1.007947	0.0000000000000000	A    	0.2649532787260222	0.06568880010977264
protein_1046	     7	14.00672	0.0000000000000000	A    	0.3249998524031035	0.7112799996555186
protein_1047	     1	1.007947	0.0000000000000000	A    	0.1069078461720523	0.06568880001765333
protein_1048	     6	12.01078	0.0000000000000000	A    	0.339966950845074	0.4577295996474049
protein_1049	     1	1.007947	0.0000000000000000	A    	0.2471353042642165	0.06568880041196259
protein_1050	     6	12.01078	0.0000000000000000	A    	0.3399669507944831	0.3598240005370534
protein_1051	     8	15.99943	0.0000000000000000	A    	0.2959921901644686	0.8786399993381852
protein_1052	     6	12.01078	0.0000000000000000	A    	0.339966950845074	0.4577295996474049
protein_1053	     1	1.007947	0.0000000000000000	A    	0.2649532787260222	0.06568880010977264
protein_1054	     6	12.01078	0.0000000000000000	A    	0.339966950845074	0.4577295996474049
protein_1055	     1	1.007947	0.0000000000000000	A    	0.2649532787260222	0.06568880010977264
protein_1056	     1	1.007947	0.0000000000000000	A    	0.2649532787260222	0.06568880010977264
protein_1057	     6	12.01078	0.0000000000000000	A    	0.339966950845074	0.4577295996474049
protein_1058	     1	1.007947	0.0000000000000000	A    	0.2649532787260222	0.06568880010977264
protein_1059	     1	1.007947	0.0000000000000000	A    	0.2649532787260222	0.06568880010977264
protein_1060	     1	1.007947	0.0000000000000000	A    	0.2649532787260222	0.06568880010977264
protein_1061	     6	12.01078	0.0000000000000000	A    	0.339966950845074	0.4577295996474049
protein_1062	     1	1.007947	0.0000000000000000	A    	0.2649532787260222	0.06568880010977264
protein_1063	     1	1.007947	0.0000000000000000	A    	0.2649532787260222	0.06568880010977264
protein_1064	     1	1.007947	0.0000000000000000	A    	0.2649532787260222	0.06568880010977264
protein_1065	     7	14.00672	0.0000000000000000	A    	0.3249998524031035	0.7112799996555186
protein_1066	     1	1.007947	0.0000000000000000	A    	0.1069078461720523	0.06568880001765333
protein_1067	     6	12.01078	0.0000000000000000	A    	0.339966950845074	0.4577295996474049
protein_1068	     1	1.007947	0.0000000000000000	A    	0.2471353042642165	0.06568880041196259
protein_1069	     6	12.01078	0.0000000000000000	A    	0.3399669507944831	0.3598240005370534
protein_1070	     8	15.99943	0.0000000000000000	A    	0.2959921901644686	0.8786399993381852
protein_1071	     6	12.01078	0.0000000000000000	A    	0.339966950845074	0.4577295996474049
protein_1072	     1	1.007947	0.0000000000000000	A    	0.2649532787260222	0.06568880010977264
protein_1073	     1	1.007947	0.0000000000000000	A    	0.2649532787260222	0.06568880010977264
protein_1074	     6	12.01078	0.0000000000000000	A    	0.339966950845074	0.4577295996474049
protein_1075	     1	1.007947	0.0000000000000000	A    	0.2649532787260222	0.06568880010977264
protein_1076	     1	1.007947	0.0000000000000000	A    	0.2649532787260222	0.06568880010977264
protein_1077	     6	12.01078	0.0000000000000000	A    	0.339966950845074	0.4577295996474049
protein_1078	     1	1.007947	0.0000000000000000	A    	0.2471353042642165	0.06568880041196259
protein_1079	     1	1.007947	0.0000000000000000	A    	0.2471353042642165	0.06568880041196259
protein_1080	     7	14.00672	0.0000000000000000	A    	0.3249998524031035	0.7112799996555186
protein_1081	     1	1.007947	0.0000000000000000	A    	0.1069078461720523	0.06568880001765333
protein_1082	     6	12.01078	0.0000000000000000	A    	0.3399669507944831	0.3598240005370534
protein_1083	     7	14.00672	0.0000000000000000	A    	0.3249998524031035	0.7112799996555186
protein_1084	     1	1.007947	0.0000000000000000	A    	0.1069078461720523	0.06568880001765333
protein_1085	     1	1.007947	0.0000000000000000	A    	0.1069078461720523	0.06568880001765333
protein_1086	     7	14.00672	0.0000000000000000	A    	0.3249998524031035	0.7112799996555186
protein_1087	     1	1.007947	0.0000000000000000	A    	0.1069078461720523	0.06568880001765333
protein_1088	     1	1.007947	0.0000000000000000	A    	0.1069078461720523	0.06568880001765333
protein_1089	     7	14.00672	0.0000000000000000	A    	0.3249998524031035	0.7112799996555186
protein_1090	     1	1.007947	0.0000000000000000	A    	0.1069078461720523	0.06568880001765333
protein_1091	     6	12.01078	0.0000000000000000	A    	0.339966950845074	0.4577295996474049
protein_1092	     1	1.007947	0.0000000000000000	A    	0.2471353042642165	0.06568880041196259
protein_1093	     6	12.01078	0.0000000000000000	A    	0.3399669507944831	0.3598240005370534
protein_1094	     8	15.99943	0.0000000000000000	A    	0.2959921901644686	0.8786399993381852
protein_1095	     6	12.01078	0.0000000000000000	A    	0.339966950845074	0.4577295996474049
protein_1096	     1	1.007947	0.0000000000000000	A    	0.2649532787260222	0.06568880010977264
protein_1097	     1	1.007947	0.0000000000000000	A    	0.2649532787260222	0.06568880010977264
protein_1098	     6	12.01078	0.0000000000000000	A    	0.339966950845074	0.4577295996474049
protein_1099	     1	1.007947	0.0000000000000000	A    	0.2649532787260222	0.06568880010977264
protein_1100	     1	1.007947	0.0000000000000000	A    	0.2649532787260222	0.06568880010977264
protein_1101	     6	12.01078	0.0000000000000000	A    	0.339966950845074	0.4577295996474049
protein_1102	     1	1.007947	0.0000000000000000	A    	0.2649532787260222	0.06568880010977264
protein_1103	     1	1.007947	0.0000000000000000	A    	0.2649532787260222	0.06568880010977264
protein_1104	     6	12.01078	0.0000000000000000	A    	0.339966950845074	0.4577295996474049
protein_1105	     1	1.007947	0.0000000000000000	A    	0.1959977179007358	0.06568880026244604
protein_1106	     1	1.007947	0.0000000000000000	A    	0.1959977179007358	0.06568880026244604
protein_1107	     7	14.00672	0.0000000000000000	A    	0.3249998524031035	0.7112799996555186
protein_1108	     1	1.007947	0.0000000000000000	A    	0.1069078461720523	0.06568880001765333
protein_1109	     1	1.007947	0.0000000000000000	A    	0.1069078461720523	0.06568880001765333
protein_1110	     1	1.007947	0.0000000000000000	A    	0.1069078461720523	0.06568880001765333
protein_1111	     7	14.00672	0.0000000000000000	A    	0.3249998524031035	0.7112799996555186
protein_1112	     1	1.007947	0.0000000000000000	A    	0.1069078461720523	0.06568880001765333
protein_1113	     6	12.01078	0.0000000000000000	A    	0.339966950845074	0.4577295996474049
protein_1114	     1	1.007947	0.0000000000000000	A    	0.2471353042642165	0.06568880041196259
protein_1115	     6	12.01078	0.0000000000000000	A    	0.3399669507944831	0.3598240005370534
protein_1116	     8	15.99943	0.0000000000000000	A    	0.2959921901644686	0.8786399993381852
protein_1117	     6	12.01078	0.0000000000000000	A    	0.339966950845074	0.4577295996474049
protein_1118	     1	1.007947	0.0000000000000000	A    	0.2649532787260222	0.06568880010977264
protein_1119	     1	1.007947	0.0000000000000000	A    	0.2649532787260222	0.06568880010977264
protein_1120	     6	12.01078	0.0000000000000000	A    	0.339966950845074	0.4577295996474049
protein_1121	     1	1.007947	0.0000000000000000	A    	0.2649532787260222	0.06568880010977264
protein_1122	     6	12.01078	0.0000000000000000	A    	0.339966950845074	0.4577295996474049
protein_1123	     1	1.007947	0.0000000000000000	A    	0.2649532787260222	0.06568880010977264
protein_1124	     1	1.007947	0.0000000000000000	A    	0.2649532787260222	0.06568880010977264
protein_1125	     1	1.007947	0.0000000000000000	A    	0.2649532787260222	0.06568880010977264
protein_1126	     6	12.01078	0.0000000000000000	A    	0.339966950845074	0.4577295996474049
protein_1127	     1	1.007947	0.0000000000000000	A    	0.2649532787260222	0.06568880010977264
protein_1128	     1	1.007947	0.0000000000000000	A    	0.2649532787260222	0.06568880010977264
protein_1129	     1	1.007947	0.0000000000000000	A    	0.2649532787260222	0.06568880010977264
protein_1130	     7	14.00672	0.0000000000000000	A    	0.3249998524031035	0.7112799996555186
protein_1131	     1	1.007947	0.0000000000000000	A    	0.1069078461720523	0.06568880001765333
protein_1132	     6	12.01078	0.0000000000000000	A    	0.339966950845074	0.4577295996474049
protein_1133	     1	1.007947	0.0000000000000000	A    	0.2471353042642165	0.06568880041196259
protein_1134	     6	12.01078	0.0000000000000000	A    	0.3399669507944831	0.3598240005370534
protein_1135	     8	15.99943	0.0000000000000000	A    	0.2959921901644686	0.8786399993381852
protein_1136	     6	12.01078	0.0000000000000000	A    	0.339966950845074	0.4577295996474049
protein_1137	     1	1.007947	0.0000000000000000	A    	0.2649532787260222	0.06568880010977264
protein_1138	     1	1.007947	0.0000000000000000	A    	0.2649532787260222	0.06568880010977264
protein_1139	     6	12.01078	0.0000000000000000	A    	0.3399669507944831	0.3598240005370534
protein_1140	     8	15.99943	0.0000000000000000	A    	0.2959921901644686	0.8786399993381852
protein_1141	     8	15.99943	0.0000000000000000	A    	0.2959921901644686	0.8786399993381852
protein_1142	     7	14.00672	0.0000000000000000	A    	0.3249998524031035	0.7112799996555186
protein_1143	     1	1.007947	0.0000000000000000	A    	0.1069078461720523	0.06568880001765333
protein_1144	     6	12.01078	0.0000000000000000	A    	0.339966950845074	0.4577295996474049
protein_1145	     1	1.007947	0.0000000000000000	A    	0.2471353042642165	0.06568880041196259
protein_1146	     6	12.01078	0.0000000000000000	A    	0.3399669507944831	0.3598240005370534
protein_1147	     8	15.99943	0.0000000000000000	A    	0.2959921901644686	0.8786399993381852
protein_1148	     6	12.01078	0.0000000000000000	A    	0.339966950845074	0.4577295996474049
protein_1149	     1	1.007947	0.0000000000000000	A    	0.2471353042642165	0.06568880041196259
protein_1150	     1	1.007947	0.0000000000000000	A    	0.2471353042642165	0.06568880041196259
protein_1151	     8	15.99943	0.0000000000000000	A    	0.3066473387458142	0.8803136010405576
protein_1152	     1	1.007947	0.0000000000000000	A    	0	0
protein_1153	     7	14.00672	0.0000000000000000	A    	0.3249998524031035	0.7112799996555186
protein_1154	     1	1.007947	0.0000000000000000	A    	0.1069078461720523	0.06568880001765333
protein_1155	     6	12.01078	0.0000000000000000	A    	0.339966950845074	0.4577295996474049
protein_1156	     1	1.007947	0.0000000000000000	A    	0.2471353042642165	0.06568880041196259
protein_1157	     1	1.007947	0.0000000000000000	A    	0.2471353042642165	0.06568880041196259
protein_1158	     6	12.01078	0.0000000000000000	A    	0.3399669507944831	0.3598240005370534
protein_1159	     8	15.99943	0.0000000000000000	A    	0.2959921901644686	0.8786399993381852
protein_1160	     7	14.00672	0.0000000000000000	A    	0.3249998524031035	0.7112799996555186
protein_1161	     1	1.007947	0.0000000000000000	A    	0.1069078461720523	0.06568880001765333
protein_1162	     6	12.01078	0.0000000000000000	A    	0.339966950845074	0.4577295996474049
protein_1163	     1	1.007947	0.0000000000000000	A    	0.2471353042642165	0.06568880041196259
protein_1164	     1	1.007947	0.0000000000000000	A    	0.2471353042642165	0.06568880041196259
protein_1165	     6	12.01078	0.0000000000000000	A    	0.3399669507944831	0.3598240005370534
protein_1166	     8	15.99943	0.0000000000000000	A    	0.2959921901644686	0.8786399993381852
protein_1167	     7	14.00672	0.0000000000000000	A    	0.3249998524031035	0.7112799996555186
protein_1168	     1	1.007947	0.0000000000000000	A    	0.1069078461720523	0.06568880001765333
protein_1169	     6	12.01078	0.0000000000000000	A    	0.339966950845074	0.4577295996474049
protein_1170	     1	1.007947	0.0000000000000000	A    	0.2471353042642165	0.06568880041196259
protein_1171	     6	12.01078	0.0000000000000000	A    	0.3399669507944831	0.3598240005370534
protein_1172	     8	15.99943	0.0000000000000000	A    	0.2959921901644686	0.8786399993381852
protein_1173	     6	12.01078	0.0000000000000000	A    	0.339966950845074	0.4577295996474049
protein_1174	     1	1.007947	0.0000000000000000	A    	0.2649532787260222	0.06568880010977264
protein_1175	     1	1.007947	0.0000000000000000	A    	0.2649532787260222	0.06568880010977264
protein_1176	     6	12.01078	0.0000000000000000	A    	0.3399669507944831	0.3598240005370534
protein_1177	     6	12.01078	0.0000000000000000	A    	0.3399669507944831	0.3598240005370534
protein_1178	     1	1.007947	0.0000000000000000	A    	0.2599642458735085	0.06276000026869927
protein_1179	     6	12.01078	0.0000000000000000	A    	0.3399669507944831	0.3598240005370534
protein_1180	     1	1.007947	0.0000000000000000	A    	0.2599642458735085	0.06276000026869927
protein_1181	     6	12.01078	0.0000000000000000	A    	0.3399669507944831	0.3598240005370534
protein_1182	     1	1.007947	0.0000000000000000	A    	0.2599642458735085	0.06276000026869927
protein_1183	     6	12.01078	0.0000000000000000	A    	0.3399669507944831	0.3598240005370534
protein_1184	     1	1.007947	0.0000000000000000	A    	0.2599642458735085	0.06276000026869927
protein_1185	     6	12.01078	0.0000000000000000	A    	0.3399669507944831	0.3598240005370534
protein_1186	     1	1.007947	0.0000000000000000	A    	0.2599642458735085	0.06276000026869927
protein_1187	     7	14.00672	0.0000000000000000	A    	0.3249998524031035	0.7112799996555186
protein_1188	     1	1.007947	0.0000000000000000	A    	0.1069078461720523	0.06568880001765333
protein_1189	     6	12.01078	0.0000000000000000	A    	0.339966950845074	0.4577295996474049
protein_1190	     1	1.007947	0.0000000000000000	A    	0.2471353042642165	0.06568880041196259
protein_1191	     6	12.01078	0.0000000000000000	A    	0.3399669507944831	0.3598240005370534
protein_1192	     8	15.99943	0.0000000000000000	A    	0.2959921901644686	0.8786399993381852
protein_1193	     6	12.01078	0.0000000000000000	A    	0.339966950845074	0.4577295996474049
protein_1194	     1	1.007947	0.0000000000000000	A    	0.2649532787260222	0.06568880010977264
protein_1195	     1	1.007947	0.0000000000000000	A    	0.2649532787260222	0.06568880010977264
protein_1196	     6	12.01078	0.0000000000000000	A    	0.3399669507944831	0.3598240005370534
protein_1197	     6	12.01078	0.0000000000000000	A    	0.3399669507944831	0.3598240005370534
protein_1198	     1	1.007947	0.0000000000000000	A    	0.2599642458735085	0.06276000026869927
protein_1199	     6	12.01078	0.0000000000000000	A    	0.3399669507944831	0.3598240005370534
protein_1200	     1	1.007947	0.0000000000000000	A    	0.2599642458735085	0.06276000026869927
protein_1201	     6	12.01078	0.0000000000000000	A    	0.3399669507944831	0.3598240005370534
protein_1202	     1	1.007947	0.0000000000000000	A    	0.2599642458735085	0.06276000026869927
protein_1203	     6	12.01078	0.0000000000000000	A    	0.3399669507944831	0.3598240005370534
protein_1204	     1	1.007947	0.0000000000000000	A    	0.2599642458735085	0.06276000026869927
protein_1205	     6	12.01078	0.0000000000000000	A    	0.3399669507944831	0.3598240005370534
protein_1206	     8	15.99943	0.0000000000000000	A    	0.3066473387458142	0.8803136010405576
protein_1207	     1	1.007947	0.0000000000000000	A    	0	0
protein_1208	     7	14.00672	0.0000000000000000	A    	0.3249998524031035	0.7112799996555186
protein_1209	     1	1.007947	0.0000000000000000	A    	0.1069078461720523	0.06568880001765333
protein_1210	     6	12.01078	0.0000000000000000	A    	0.339966950845074	0.4577295996474049
protein_1211	     1	1.007947	0.0000000000000000	A    	0.2471353042642165	0.06568880041196259
protein_1212	     6	12.01078	0.0000000000000000	A    	0.3399669507944831	0.3598240005370534
protein_1213	     8	15.99943	0.0000000000000000	A    	0.2959921901644686	0.8786399993381852
protein_1214	     6	12.01078	0.0000000000000000	A    	0.339966950845074	0.4577295996474049
protein_1215	     1	1.007947	0.0000000000000000	A    	0.2649532787260222	0.06568880010977264
protein_1216	     6	12.01078	0.0000000000000000	A    	0.339966950845074	0.4577295996474049
protein_1217	     1	1.007947	0.0000000000000000	A    	0.2649532787260222	0.06568880010977264
protein_1218	     1	1.007947	0.0000000000000000	A    	0.2649532787260222	0.06568880010977264
protein_1219	     6	12.01078	0.0000000000000000	A    	0.339966950845074	0.4577295996474049
protein_1220	     1	1.007947	0.0000000000000000	A    	0.2649532787260222	0.06568880010977264
protein_1221	     1	1.007947	0.0000000000000000	A    	0.2649532787260222	0.06568880010977264
protein_1222	     1	1.007947	0.0000000000000000	A    	0.2649532787260222	0.06568880010977264
protein_1223	     6	12.01078	0.0000000000000000	A    	0.339966950845074	0.4577295996474049
protein_1224	     1	1.007947	0.0000000000000000	A    	0.2649532787260222	0.06568880010977264
protein_1225	     1	1.007947	0.0000000000000000	A    	0.2649532787260222	0.06568880010977264
protein_1226	     1	1.007947	0.0000000000000000	A    	0.2649532787260222	0.06568880010977264
protein_1227	     7	14.00672	0.0000000000000000	A    	0.3249998524031035	0.7112799996555186
protein_1228	     1	1.007947	0.0000000000000000	A    	0.1069078461720523	0.06568880001765333
protein_1229	     6	12.01078	0.0000000000000000	A    	0.339966950845074	0.4577295996474049
protein_1230	     1	1.007947	0.0000000000000000	A    	0.2471353042642165	0.06568880041196259
protein_1231	     6	12.01078	0.0000000000000000	A    	0.3399669507944831	0.3598240005370534
protein_1232	     8	15.99943	0.0000000000000000	A    	0.2959921901644686	0.8786399993381852
protein_1233	     6	12.01078	0.0000000000000000	A    	0.339966950845074	0.4577295996474049
protein_1234	     1	1.007947	0.0000000000000000	A    	0.2471353042642165	0.06568880041196259
protein_1235	     6	12.01078	0.0000000000000000	A    	0.339966950845074	0.4577295996474049
protein_1236	     1	1.007947	0.0000000000000000	A    	0.2649532787260222	0.06568880010977264
protein_1237	     1	1.007947	0.0000000000000000	A    	0.2649532787260222	0.06568880010977264
protein_1238	     1	1.007947	0.0000000000000000	A    	0.2649532787260222	0.06568880010977264
protein_1239	     8	15.99943	0.0000000000000000	A    	0.3066473387458142	0.8803136010405576
protein_1240	     1	1.007947	0.0000000000000000	A    	0	0
protein_1241	     7	14.00672	0.0000000000000000	A    	0.3249998524031035	0.7112799996555186
protein_1242	     1	1.007947	0.0000000000000000	A    	0.1069078461720523	0.06568880001765333
protein_1243	     6	12.01078	0.0000000000000000	A    	0.339966950845074	0.4577295996474049
protein_1244	     1	1.007947	0.0000000000000000	A    	0.2471353042642165	0.06568880041196259
protein_1245	     6	12.01078	0.0000000000000000	A    	0.3399669507944831	0.3598240005370534
protein_1246	     8	15.99943	0.0000000000000000	A    	0.2959921901644686	0.8786399993381852
protein_1247	     6	12.01078	0.0000000000000000	A    	0.339966950845074	0.4577295996474049
protein_1248	     1	1.007947	0.0000000000000000	A    	0.2471353042642165	0.06568880041196259
protein_1249	     1	1.007947	0.0000000000000000	A    	0.2471353042642165	0.06568880041196259
protein_1250	     8	15.99943	0.0000000000000000	A    	0.3066473387458142	0.8803136010405576
protein_1251	     1	1.007947	0.0000000000000000	A    	0	0
protein_1252	     7	14.00672	0.0000000000000000	A    	0.3249998524031035	0.7112799996555186
protein_1253	     1	1.007947	0.0000000000000000	A    	0.1069078461720523	0.06568880001765333
protein_1254	     6	12.01078	0.0000000000000000	A    	0.339966950845074	0.4577295996474049
protein_1255	     1	1.007947	0.0000000000000000	A    	0.2471353042642165	0.06568880041196259
protein_1256	     6	12.01078	0.0000000000000000	A    	0.3399669507944831	0.3598240005370534
protein_1257	     8	15.99943	0.0000000000000000	A    	0.2959921901644686	0.8786399993381852
protein_1258	     6	12.01078	0.0000000000000000	A    	0.339966950845074	0.4577295996474049
protein_1259	     1	1.007947	0.0000000000000000	A    	0.2649532787260222	0.06568880010977264
protein_1260	     1	1.007947	0.0000000000000000	A    	0.2649532787260222	0.06568880010977264
protein_1261	     6	12.01078	0.0000000000000000	A    	0.339966950845074	0.4577295996474049
protein_1262	     1	1.007947	0.0000000000000000	A    	0.2649532787260222	0.06568880010977264
protein_1263	     1	1.007947	0.0000000000000000	A    	0.2649532787260222	0.06568880010977264
protein_1264	     6	12.01078	0.0000000000000000	A    	0.339966950845074	0.4577295996474049
protein_1265	     1	1.007947	0.0000000000000000	A    	0.2471353042642165	0.06568880041196259
protein_1266	     1	1.007947	0.0000000000000000	A    	0.2471353042642165	0.06568880041196259
protein_1267	     7	14.00672	0.0000000000000000	A    	0.3249998524031035	0.7112799996555186
protein_1268	     1	1.007947	0.0000000000000000	A    	0.1069078461720523	0.06568880001765333
protein_1269	     6	12.01078	0.0000000000000000	A    	0.3399669507944831	0.3598240005370534
protein_1270	     7	14.00672	0.0000000000000000	A    	0.3249998524031035	0.7112799996555186
protein_1271	     1	1.007947	0.0000000000000000	A    	0.1069078461720523	0.06568880001765333
protein_1272	     1	1.007947	0.0000000000000000	A    	0.1069078461720523	0.06568880001765333
protein_1273	     7	14.00672	0.0000000000000000	A    	0.3249998524031035	0.7112799996555186
protein_1274	     1	1.007947	0.0000000000000000	A    	0.1069078461720523	0.06568880001765333
protein_1275	     1	1.007947	0.0000000000000000	A    	0.1069078461720523	0.06568880001765333
protein_1276	     7	14.00672	0.0000000000000000	A    	0.3249998524031035	0.7112799996555186
protein_1277	     1	1.007947	0.0000000000000000	A    	0.1069078461720523	0.06568880001765333
protein_1278	     6	12.01078	0.0000000000000000	A    	0.339966950845074	0.4577295996474049
protein_1279	     1	1.007947	0.0000000000000000	A    	0.2471353042642165	0.06568880041196259
protein_1280	     6	12.01078	0.0000000000000000	A    	0.3399669507944831	0.3598240005370534
protein_1281	     8	15.99943	0.0000000000000000	A    	0.2959921901644686	0.8786399993381852
protein_1282	     6	12.01078	0.0000000000000000	A    	0.339966950845074	0.4577295996474049
protein_1283	     1	1.007947	0.0000000000000000	A    	0.2471353042642165	0.06568880041196259
protein_1284	     6	12.01078	0.0000000000000000	A    	0.339966950845074	0.4577295996474049
protein_1285	     1	1.007947	0.0000000000000000	A    	0.2649532787260222	0.06568880010977264
protein_1286	     1	1.007947	0.0000000000000000	A    	0.2649532787260222	0.06568880010977264
protein_1287	     1	1.007947	0.0000000000000000	A    	0.2649532787260222	0.06568880010977264
protein_1288	     8	15.99943	0.0000000000000000	A    	0.3066473387458142	0.8803136010405576
protein_1289	     1	1.007947	0.0000000000000000	A    	0	0
protein_1290	     7	14.00672	0.0000000000000000	A    	0.3249998524031035	0.7112799996555186
protein_1291	     1	1.007947	0.0000000000000000	A    	0.1069078461720523	0.06568880001765333
protein_1292	     6	12.01078	0.0000000000000000	A    	0.339966950845074	0.4577295996474049
protein_1293	     1	1.007947	0.0000000000000000	A    	0.2471353042642165	0.06568880041196259
protein_1294	     6	12.01078	0.0000000000000000	A    	0.3399669507944831	0.3598240005370534
protein_1295	     8	15.99943	0.0000000000000000	A    	0.2959921901644686	0.8786399993381852
protein_1296	     6	12.01078	0.0000000000000000	A    	0.339966950845074	0.4577295996474049
protein_1297	     1	1.007947	0.0000000000000000	A    	0.2649532787260222	0.06568880010977264
protein_1298	     1	1.007947	0.0000000000000000	A    	0.2649532787260222	0.06568880010977264
protein_1299	     6	12.01078	0.0000000000000000	A    	0.339966950845074	0.4577295996474049
protein_1300	     1	1.007947	0.0000000000000000	A    	0.2649532787260222	0.06568880010977264
protein_1301	     1	1.007947	0.0000000000000000	A    	0.2649532787260222	0.06568880010977264
protein_1302	     6	12.01078	0.0000000000000000	A    	0.3399669507944831	0.3598240005370534
protein_1303	     7	14.00672	0.0000000000000000	A    	0.3249998524031035	0.7112799996555186
protein_1304	     1	1.007947	0.0000000000000000	A    	0.1069078461720523	0.06568880001765333
protein_1305	     1	1.007947	0.0000000000000000	A    	0.1069078461720523	0.06568880001765333
protein_1306	     8	15.99943	0.0000000000000000	A    	0.2959921901644686	0.8786399993381852
protein_1307	     7	14.00672	0.0000000000000000	A    	0.3249998524031035	0.7112799996555186
protein_1308	     1	1.007947	0.0000000000000000	A    	0.1069078461720523	0.06568880001765333
protein_1309	     6	12.01078	0.0000000000000000	A    	0.339966950845074	0.4577295996474049
protein_1310	     1	1.007947	0.0000000000000000	A    	0.2471353042642165	0.06568880041196259
protein_1311	     6	12.01078	0.0000000000000000	A    	0.3399669507944831	0.3598240005370534
protein_1312	     8	15.99943	0.0000000000000000	A    	0.2959921901644686	0.8786399993381852
protein_1313	     6	12.01078	0.0000000000000000	A    	0.339966950845074	0.4577295996474049
protein_1314	     1	1.007947	0.0000000000000000	A    	0.2649532787260222	0.06568880010977264
protein_1315	     1	1.007947	0.0000000000000000	A    	0.2649532787260222	0.06568880010977264
protein_1316	     6	12.01078	0.0000000000000000	A    	0.3399669507944831	0.3598240005370534
protein_1317	     6	12.01078	0.0000000000000000	A    	0.3399669507944831	0.3598240005370534
protein_1318	     1	1.007947	0.0000000000000000	A    	0.2599642458735085	0.06276000026869927
protein_1319	     6	12.01078	0.0000000000000000	A    	0.3399669507944831	0.3598240005370534
protein_1320	     1	1.007947	0.0000000000000000	A    	0.2599642458735085	0.06276000026869927
protein_1321	     6	12.01078	0.0000000000000000	A    	0.3399669507944831	0.3598240005370534
protein_1322	     1	1.007947	0.0000000000000000	A    	0.2599642458735085	0.06276000026869927
protein_1323	     6	12.01078	0.0000000000000000	A    	0.3399669507944831	0.3598240005370534
protein_1324	     1	1.007947	0.0000000000000000	A    	0.2599642458735085	0.06276000026869927
protein_1325	     6	12.01078	0.0000000000000000	A    	0.3399669507944831	0.3598240005370534
protein_1326	     1	1.007947	0.0000000000000000	A    	0.2599642458735085	0.06276000026869927
protein_1327	     7	14.00672	0.0000000000000000	A    	0.3249998524031035	0.7112799996555186
protein_1328	     1	1.007947	0.0000000000000000	A    	0.1069078461720523	0.06568880001765333
protein_1329	     6	12.01078	0.0000000000000000	A    	0.339966950845074	0.4577295996474049
protein_1330	     1	1.007947	0.0000000000000000	A    	0.2471353042642165	0.06568880041196259
protein_1331	     6	12.01078	0.0000000000000000	A    	0.3399669507944831	0.3598240005370534
protein_1332	     8	15.99943	0.0000000000000000	A    	0.2959921901644686	0.8786399993381852
protein_1333	     6	12.01078	0.0000000000000000	A    	0.339966950845074	0.4577295996474049
protein_1334	     1	1.007947	0.0000000000000000	A    	0.2649532787260222	0.06568880010977264
protein_1335	     1	1.007947	0.0000000000000000	A    	0.2649532787260222	0.06568880010977264
protein_1336	     6	12.01078	0.0000000000000000	A    	0.3399669507944831	0.3598240005370534
protein_1337	     7	14.00672	0.0000000000000000	A    	0.3249998524031035	0.7112799996555186
protein_1338	     1	1.007947	0.0000000000000000	A    	0.1069078461720523	0.06568880001765333
protein_1339	     1	1.007947	0.0000000000000000	A    	0.1069078461720523	0.06568880001765333
protein_1340	     8	15.99943	0.0000000000000000	A    	0.2959921901644686	0.8786399993381852
protein_1341	     7	14.00672	0.0000000000000000	A    	0.3249998524031035	0.7112799996555186
protein_1342	     1	1.007947	0.0000000000000000	A    	0.1069078461720523	0.06568880001765333
protein_1343	     6	12.01078	0.0000000000000000	A    	0.339966950845074	0.4577295996474049
protein_1344	     1	1.007947	0.0000000000000000	A    	0.2471353042642165	0.06568880041196259
protein_1345	     6	12.01078	0.0000000000000000	A    	0.3399669507944831	0.3598240005370534
protein_1346	     8	15.99943	0.0000000000000000	A    	0.2959921901644686	0.8786399993381852
protein_1347	     6	12.01078	0.0000000000000000	A    	0.339966950845074	0.4577295996474049
protein_1348	     1	1.007947	0.0000000000000000	A    	0.2471353042642165	0.06568880041196259
protein_1349	     1	1.007947	0.0000000000000000	A    	0.2471353042642165	0.06568880041196259
protein_1350	     8	15.99943	0.0000000000000000	A    	0.3066473387458142	0.8803136010405576
protein_1351	     1	1.007947	0.0000000000000000	A    	0	0
protein_1352	     7	14.00672	0.0000000000000000	A    	0.3249998524031035	0.7112799996555186
protein_1353	     1	1.007947	0.0000000000000000	A    	0.1069078461720523	0.06568880001765333
protein_1354	     6	12.01078	0.0000000000000000	A    	0.339966950845074	0.4577295996474049
protein_1355	     1	1.007947	0.0000000000000000	A    	0.2471353042642165	0.06568880041196259
protein_1356	     6	12.01078	0.0000000000000000	A    	0.3399669507944831	0.3598240005370534
protein_1357	     8	15.99943	0.0000000000000000	A    	0.2959921901644686	0.8786399993381852
protein_1358	     6	12.01078	0.0000000000000000	A    	0.339966950845074	0.4577295996474049
protein_1359	     1	1.007947	0.0000000000000000	A    	0.2649532787260222	0.06568880010977264
protein_1360	     1	1.007947	0.0000000000000000	A    	0.2649532787260222	0.06568880010977264
protein_1361	     6	12.01078	0.0000000000000000	A    	0.339966950845074	0.4577295996474049
protein_1362	     1	1.007947	0.0000000000000000	A    	0.2649532787260222	0.06568880010977264
protein_1363	     6	12.01078	0.0000000000000000	A    	0.339966950845074	0.4577295996474049
protein_1364	     1	1.007947	0.0000000000000000	A    	0.2649532787260222	0.06568880010977264
protein_1365	     1	1.007947	0.0000000000000000	A    	0.2649532787260222	0.06568880010977264
protein_1366	     1	1.007947	0.0000000000000000	A    	0.2649532787260222	0.06568880010977264
protein_1367	     6	12.01078	0.0000000000000000	A    	0.339966950845074	0.4577295996474049
protein_1368	     1	1.007947	0.0000000000000000	A    	0.2649532787260222	0.06568880010977264
protein_1369	     1	1.007947	0.0000000000000000	A    	0.2649532787260222	0.06568880010977264
protein_1370	     1	1.007947	0.0000000000000000	A    	0.2649532787260222	0.06568880010977264
protein_1371	     7	14.00672	0.0000000000000000	A    	0.3249998524031035	0.7112799996555186
protein_1372	     1	1.007947	0.0000000000000000	A    	0.1069078461720523	0.06568880001765333
protein_1373	     6	12.01078	0.0000000000000000	A    	0.339966950845074	0.4577295996474049
protein_1374	     1	1.007947	0.0000000000000000	A    	0.2471353042642165	0.06568880041196259
protein_1375	     6	12.01078	0.0000000000000000	A    	0.3399669507944831	0.3598240005370534
protein_1376	     8	15.99943	0.0000000000000000	A    	0.2959921901644686	0.8786399993381852
protein_1377	     6	12.01078	0.0000000000000000	A    	0.339966950845074	0.4577295996474049
protein_1378	     1	1.007947	0.0000000000000000	A    	0.2649532787260222	0.06568880010977264
protein_1379	     1	1.007947	0.0000000000000000	A    	0.2649532787260222	0.06568880010977264
protein_1380	     6	12.01078	0.0000000000000000	A    	0.339966950845074	0.4577295996474049
protein_1381	     1	1.007947	0.0000000000000000	A    	0.2649532787260222	0.06568880010977264
protein_1382	     1	1.007947	0.0000000000000000	A    	0.2649532787260222	0.06568880010977264
protein_1383	     6	12.01078	0.0000000000000000	A    	0.3399669507944831	0.3598240005370534
protein_1384	     7	14.00672	0.0000000000000000	A    	0.3249998524031035	0.7112799996555186
protein_1385	     1	1.007947	0.0000000000000000	A    	0.1069078461720523	0.06568880001765333
protein_1386	     1	1.007947	0.0000000000000000	A    	0.1069078461720523	0.06568880001765333
protein_1387	     8	15.99943	0.0000000000000000	A    	0.2959921901644686	0.8786399993381852
protein_1388	     7	14.00672	0.0000000000000000	A    	0.3249998524031035	0.7112799996555186
protein_1389	     1	1.007947	0.0000000000000000	A    	0.1069078461720523	0.06568880001765333
protein_1390	     6	12.01078	0.0000000000000000	A    	0.339966950845074	0.4577295996474049
protein_1391	     1	1.007947	0.0000000000000000	A    	0.2471353042642165	0.06568880041196259
protein_1392	     6	12.01078	0.0000000000000000	A    	0.3399669507944831	0.3598240005370534
protein_1393	     8	15.99943	0.0000000000000000	A    	0.2959921901644686	0.8786399993381852
protein_1394	     6	12.01078	0.0000000000000000	A    	0.339966950845074	0.4577295996474049
protein_1395	     1	1.007947	0.0000000000000000	A    	0.2649532787260222	0.06568880010977264
protein_1396	     1	1.007947	0.0000000000000000	A    	0.2649532787260222	0.06568880010977264
protein_1397	     6	12.01078	0.0000000000000000	A    	0.339966950845074	0.4577295996474049
protein_1398	     1	1.007947	0.0000000000000000	A    	0.2649532787260222	0.06568880010977264
protein_1399	     1	1.007947	0.0000000000000000	A    	0.2649532787260222	0.06568880010977264
protein_1400	     6	12.01078	0.0000000000000000	A    	0.3399669507944831	0.3598240005370534
protein_1401	     7	14.00672	0.0000000000000000	A    	0.3249998524031035	0.7112799996555186
protein_1402	     1	1.007947	0.0000000000000000	A    	0.1069078461720523	0.06568880001765333
protein_1403	     1	1.007947	0.0000000000000000	A    	0.1069078461720523	0.06568880001765333
protein_1404	     8	15.99943	0.0000000000000000	A    	0.2959921901644686	0.8786399993381852
protein_1405	     7	14.00672	0.0000000000000000	A    	0.3249998524031035	0.7112799996555186
protein_1406	     1	1.007947	0.0000000000000000	A    	0.1069078461720523	0.06568880001765333
protein_1407	     6	12.01078	0.0000000000000000	A    	0.339966950845074	0.4577295996474049
protein_1408	     1	1.007947	0.0000000000000000	A    	0.2471353042642165	0.06568880041196259
protein_1409	     6	12.01078	0.0000000000000000	A    	0.3399669507944831	0.3598240005370534
protein_1410	     8	15.99943	0.0000000000000000	A    	0.2959921901644686	0.8786399993381852
protein_1411	     6	12.01078	0.0000000000000000	A    	0.339966950845074	0.4577295996474049
protein_1412	     1	1.007947	0.0000000000000000	A    	0.2649532787260222	0.06568880010977264
protein_1413	     1	1.007947	0.0000000000000000	A    	0.2649532787260222	0.06568880010977264
protein_1414	     6	12.01078	0.0000000000000000	A    	0.339966950845074	0.4577295996474049
protein_1415	     1	1.007947	0.0000000000000000	A    	0.2649532787260222	0.06568880010977264
protein_1416	     6	12.01078	0.0000000000000000	A    	0.339966950845074	0.4577295996474049
protein_1417	     1	1.007947	0.0000000000000000	A    	0.2649532787260222	0.06568880010977264
protein_1418	     1	1.007947	0.0000000000000000	A    	0.2649532787260222	0.06568880010977264
protein_1419	     1	1.007947	0.0000000000000000	A    	0.2649532787260222	0.06568880010977264
protein_1420	     6	12.01078	0.0000000000000000	A    	0.339966950845074	0.4577295996474049
protein_1421	     1	1.007947	0.0000000000000000	A    	0.2649532787260222	0.06568880010977264
protein_1422	     1	1.007947	0.0000000000000000	A    	0.2649532787260222	0.06568880010977264
protein_1423	     1	1.007947	0.0000000000000000	A    	0.2649532787260222	0.06568880010977264
protein_1424	     7	14.00672	0.0000000000000000	A    	0.3249998524031035	0.7112799996555186
protein_1425	     1	1.007947	0.0000000000000000	A    	0.1069078461720523	0.06568880001765333
protein_1426	     6	12.01078	0.0000000000000000	A    	0.339966950845074	0.4577295996474049
protein_1427	     1	1.007947	0.0000000000000000	A    	0.2471353042642165	0.06568880041196259
protein_1428	     6	12.01078	0.0000000000000000	A    	0.3399669507944831	0.3598240005370534
protein_1429	     8	15.99943	0.0000000000000000	A    	0.2959921901644686	0.8786399993381852
protein_1430	     6	12.01078	0.0000000000000000	A    	0.339966950845074	0.4577295996474049
protein_1431	     1	1.007947	0.0000000000000000	A    	0.2649532787260222	0.06568880010977264
protein_1432	     6	12.01078	0.0000000000000000	A    	0.339966950845074	0.4577295996474049
protein_1433	     1	1.007947	0.0000000000000000	A    	0.2649532787260222	0.06568880010977264
protein_1434	     1	1.007947	0.0000000000000000	A    	0.2649532787260222	0.06568880010977264
protein_1435	     1	1.007947	0.0000000000000000	A    	0.2649532787260222	0.06568880010977264
protein_1436	     6	12.01078	0.0000000000000000	A    	0.339966950845074	0.4577295996474049
protein_1437	     1	1.007947	0.0000000000000000	A    	0.2649532787260222	0.06568880010977264
protein_1438	     1	1.007947	0.0000000000000000	A    	0.2649532787260222	0.06568880010977264
protein_1439	     1	1.007947	0.0000000000000000	A    	0.2649532787260222	0.06568880010977264
protein_1440	     7	14.00672	0.0000000000000000	A    	0.3249998524031035	0.7112799996555186
protein_1441	     1	1.007947	0.0000000000000000	A    	0.1069078461720523	0.06568880001765333
protein_1442	     6	12.01078	0.0000000000000000	A    	0.339966950845074	0.4577295996474049
protein_1443	     1	1.007947	0.0000000000000000	A    	0.2471353042642165	0.06568880041196259
protein_1444	     6	12.01078	0.0000000000000000	A    	0.3399669507944831	0.3598240005370534
protein_1445	     8	15.99943	0.0000000000000000	A    	0.2959921901644686	0.8786399993381852
protein_1446	     6	12.01078	0.0000000000000000	A    	0.339966950845074	0.4577295996474049
protein_1447	     1	1.007947	0.0000000000000000	A    	0.2649532787260222	0.06568880010977264
protein_1448	     1	1.007947	0.0000000000000000	A    	0.2649532787260222	0.06568880010977264
protein_1449	     1	1.007947	0.0000000000000000	A    	0.2649532787260222	0.06568880010977264
protein_1450	     7	14.00672	0.0000000000000000	A    	0.3249998524031035	0.7112799996555186
protein_1451	     1	1.007947	0.0000000000000000	A    	0.1069078461720523	0.06568880001765333
protein_1452	     6	12.01078	0.0000000000000000	A    	0.339966950845074	0.4577295996474049
protein_1453	     1	1.007947	0.0000000000000000	A    	0.2471353042642165	0.06568880041196259
protein_1454	     6	12.01078	0.0000000000000000	A    	0.3399669507944831	0.3598240005370534
protein_1455	     8	15.99943	0.0000000000000000	A    	0.2959921901644686	0.8786399993381852
protein_1456	     6	12.01078	0.0000000000000000	A    	0.339966950845074	0.4577295996474049
protein_1457	     1	1.007947	0.0000000000000000	A    	0.2649532787260222	0.06568880010977264
protein_1458	     1	1.007947	0.0000000000000000	A    	0.2649532787260222	0.06568880010977264
protein_1459	     6	12.01078	0.0000000000000000	A    	0.3399669507944831	0.3598240005370534
protein_1460	     6	12.01078	0.0000000000000000	A    	0.3399669507944831	0.3598240005370534
protein_1461	     1	1.007947	0.0000000000000000	A    	0.2599642458735085	0.06276000026869927
protein_1462	     6	12.01078	0.0000000000000000	A    	0.3399669507944831	0.3598240005370534
protein_1463	     1	1.007947	0.0000000000000000	A    	0.2599642458735085	0.06276000026869927
protein_1464	     6	12.01078	0.0000000000000000	A    	0.3399669507944831	0.3598240005370534
protein_1465	     1	1.007947	0.0000000000000000	A    	0.2599642458735085	0.06276000026869927
protein_1466	     6	12.01078	0.0000000000000000	A    	0.3399669507944831	0.3598240005370534
protein_1467	     1	1.007947	0.0000000000000000	A    	0.2599642458735085	0.06276000026869927
protein_1468	     6	12.01078	0.0000000000000000	A    	0.3399669507944831	0.3598240005370534
protein_1469	     8	15.99943	0.0000000000000000	A    	0.3066473387458142	0.8803136010405576
protein_1470	     1	1.007947	0.0000000000000000	A    	0	0
protein_1471	     7	14.00672	0.0000000000000000	A    	0.3249998524031035	0.7112799996555186
protein_1472	     1	1.007947	0.0000000000000000	A    	0.1069078461720523	0.06568880001765333
protein_1473	     6	12.01078	0.0000000000000000	A    	0.339966950845074	0.4577295996474049
protein_1474	     1	1.007947	0.0000000000000000	A    	0.2471353042642165	0.06568880041196259
protein_1475	     6	12.01078	0.0000000000000000	A    	0.3399669507944831	0.3598240005370534
protein_1476	     8	15.99943	0.0000000000000000	A    	0.2959921901644686	0.8786399993381852
protein_1477	     6	12.01078	0.0000000000000000	A    	0.339966950845074	0.4577295996474049
protein_1478	     1	1.007947	0.0000000000000000	A    	0.2649532787260222	0.06568880010977264
protein_1479	     1	1.007947	0.0000000000000000	A    	0.2649532787260222	0.06568880010977264
protein_1480	     6	12.01078	0.0000000000000000	A    	0.3399669507944831	0.3598240005370534
protein_1481	     6	12.01078	0.0000000000000000	A    	0.3399669507944831	0.3598240005370534
protein_1482	     1	1.007947	0.0000000000000000	A    	0.2599642458735085	0.06276000026869927
protein_1483	     6	12.01078	0.0000000000000000	A    	0.3399669507944831	0.3598240005370534
protein_1484	     1	1.007947	0.0000000000000000	A    	0.2599642458735085	0.06276000026869927
protein_1485	     6	12.01078	0.0000000000000000	A    	0.3399669507944831	0.3598240005370534
protein_1486	     1	1.007947	0.0000000000000000	A    	0.2599642458735085	0.06276000026869927
protein_1487	     6	12.01078	0.0000000000000000	A    	0.3399669507944831	0.3598240005370534
protein_1488	     1	1.007947	0.0000000000000000	A    	0.2599642458735085	0.06276000026869927
protein_1489	     6	12.01078	0.0000000000000000	A    	0.3399669507944831	0.3598240005370534
protein_1490	     8	15.99943	0.0000000000000000	A    	0.3066473387458142	0.8803136010405576
protein_1491	     1	1.007947	0.0000000000000000	A    	0	0
protein_1492	     7	14.00672	0.0000000000000000	A    	0.3249998524031035	0.7112799996555186
protein_1493	     1	1.007947	0.0000000000000000	A    	0.1069078461720523	0.06568880001765333
protein_1494	     6	12.01078	0.0000000000000000	A    	0.339966950845074	0.4577295996474049
protein_1495	     1	1.007947	0.0000000000000000	A    	0.2471353042642165	0.06568880041196259
protein_1496	     6	12.01078	0.0000000000000000	A    	0.3399669507944831	0.3598240005370534
protein_1497	     8	15.99943	0.0000000000000000	A    	0.2959921901644686	0.8786399993381852
protein_1498	     6	12.01078	0.0000000000000000	A    	0.339966950845074	0.4577295996474049
protein_1499	     1	1.007947	0.0000000000000000	A    	0.2471353042642165	0.06568880041196259
protein_1500	     1	1.007947	0.0000000000000000	A    	0.2471353042642165	0.06568880041196259
protein_1501	     8	15.99943	0.0000000000000000	A    	0.3066473387458142	0.8803136010405576
protein_1502	     1	1.007947	0.0000000000000000	A    	0	0
protein_1503	     7	14.00672	0.0000000000000000	A    	0.3249998524031035	0.7112799996555186
protein_1504	     1	1.007947	0.0000000000000000	A    	0.1069078461720523	0.06568880001765333
protein_1505	     6	12.01078	0.0000000000000000	A    	0.339966950845074	0.4577295996474049
protein_1506	     1	1.007947	0.0000000000000000	A    	0.2471353042642165	0.06568880041196259
protein_1507	     6	12.01078	0.0000000000000000	A    	0.3399669507944831	0.3598240005370534
protein_1508	     8	15.99943	0.0000000000000000	A    	0.2959921901644686	0.8786399993381852
protein_1509	     6	12.01078	0.0000000000000000	A    	0.339966950845074	0.4577295996474049
protein_1510	     1	1.007947	0.0000000000000000	A    	0.2649532787260222	0.06568880010977264
protein_1511	     1	1.007947	0.0000000000000000	A    	0.2649532787260222	0.06568880010977264
protein_1512	     6	12.01078	0.0000000000000000	A    	0.339966950845074	0.4577295996474049
protein_1513	     1	1.007947	0.0000000000000000	A    	0.2649532787260222	0.06568880010977264
protein_1514	     1	1.007947	0.0000000000000000	A    	0.2649532787260222	0.06568880010977264
protein_1515	     6	12.01078	0.0000000000000000	A    	0.339966950845074	0.4577295996474049
protein_1516	     1	1.007947	0.0000000000000000	A    	0.2649532787260222	0.06568880010977264
protein_1517	     1	1.007947	0.0000000000000000	A    	0.2649532787260222	0.06568880010977264
protein_1518	     6	12.01078	0.0000000000000000	A    	0.339966950845074	0.4577295996474049
protein_1519	     1	1.007947	0.0000000000000000	A    	0.1959977179007358	0.06568880026244604
protein_1520	     1	1.007947	0.0000000000000000	A    	0.1959977179007358	0.06568880026244604
protein_1521	     7	14.00672	0.0000000000000000	A    	0.3249998524031035	0.7112799996555186
protein_1522	     1	1.007947	0.0000000000000000	A    	0.1069078461720523	0.06568880001765333
protein_1523	     1	1.007947	0.0000000000000000	A    	0.1069078461720523	0.06568880001765333
protein_1524	     1	1.007947	0.0000000000000000	A    	0.1069078461720523	0.06568880001765333
protein_1525	     7	14.00672	0.0000000000000000	A    	0.3249998524031035	0.7112799996555186
protein_1526	     1	1.007947	0.0000000000000000	A    	0.1069078461720523	0.06568880001765333
protein_1527	     6	12.01078	0.0000000000000000	A    	0.339966950845074	0.4577295996474049
protein_1528	     1	1.007947	0.0000000000000000	A    	0.2471353042642165	0.06568880041196259
protein_1529	     6	12.01078	0.0000000000000000	A    	0.3399669507944831	0.3598240005370534
protein_1530	     8	15.99943	0.0000000000000000	A    	0.2959921901644686	0.8786399993381852
protein_1531	     6	12.01078	0.0000000000000000	A    	0.339966950845074	0.4577295996474049
protein_1532	     1	1.007947	0.0000000000000000	A    	0.2649532787260222	0.06568880010977264
protein_1533	     1	1.007947	0.0000000000000000	A    	0.2649532787260222	0.06568880010977264
protein_1534	     6	12.01078	0.0000000000000000	A    	0.3399669507944831	0.3598240005370534
protein_1535	     6	12.01078	0.0000000000000000	A    	0.3399669507944831	0.3598240005370534
protein_1536	     1	1.007947	0.0000000000000000	A    	0.2510552587583135	0.06275999996435834
protein_1537	     7	14.00672	0.0000000000000000	A    	0.3249998524031035	0.7112799996555186
protein_1538	     1	1.007947	0.0000000000000000	A    	0.1069078461720523	0.06568880001765333
protein_1539	     6	12.01078	0.0000000000000000	A    	0.3399669507944831	0.3598240005370534
protein_1540	     1	1.007947	0.0000000000000000	A    	0.2421462715456485	0.06276000013920789
protein_1541	     7	14.00672	0.0000000000000000	A    	0.3249998524031035	0.7112799996555186
protein_1542	     7	14.00672	0.0000000000000000	A    	0.3249998524031035	0.7112799996555186
protein_1543	     1	1.007947	0.0000000000000000	A    	0.1069078461720523	0.06568880001765333
protein_1544	     6	12.01078	0.0000000000000000	A    	0.339966950845074	0.4577295996474049
protein_1545	     1	1.007947	0.0000000000000000	A    	0.2471353042642165	0.06568880041196259
protein_1546	     6	12.01078	0.0000000000000000	A    	0.3399669507944831	0.3598240005370534
protein_1547	     8	15.99943	0.0000000000000000	A    	0.2959921901644686	0.8786399993381852
protein_1548	     6	12.01078	0.0000000000000000	A    	0.339966950845074	0.4577295996474049
protein_1549	     1	1.007947	0.0000000000000000	A    	0.2649532787260222	0.06568880010977264
protein_1550	     1	1.007947	0.0000000000000000	A    	0.2649532787260222	0.06568880010977264
protein_1551	     1	1.007947	0.0000000000000000	A    	0.2649532787260222	0.06568880010977264
protein_1552	     7	14.00672	0.0000000000000000	A    	0.3249998524031035	0.7112799996555186
protein_1553	     1	1.007947	0.0000000000000000	A    	0.1069078461720523	0.06568880001765333
protein_1554	     6	12.01078	0.0000000000000000	A    	0.339966950845074	0.4577295996474049
protein_1555	     1	1.007947	0.0000000000000000	A    	0.2471353042642165	0.06568880041196259
protein_1556	     6	12.01078	0.0000000000000000	A    	0.3399669507944831	0.3598240005370534
protein_1557	     8	15.99943	0.0000000000000000	A    	0.2959921901644686	0.8786399993381852
protein_1558	     6	12.01078	0.0000000000000000	A    	0.339966950845074	0.4577295996474049
protein_1559	     1	1.007947	0.0000000000000000	A    	0.2649532787260222	0.06568880010977264
protein_1560	     1	1.007947	0.0000000000000000	A    	0.2649532787260222	0.06568880010977264
protein_1561	     6	12.01078	0.0000000000000000	A    	0.3399669507944831	0.3598240005370534
protein_1562	     8	15.99943	0.0000000000000000	A    	0.2959921901644686	0.8786399993381852
protein_1563	     8	15.99943	0.0000000000000000	A    	0.2959921901644686	0.8786399993381852
protein_1564	     7	14.00672	0.0000000000000000	A    	0.3249998524031035	0.7112799996555186
protein_1565	     1	1.007947	0.0000000000000000	A    	0.1069078461720523	0.06568880001765333
protein_1566	     6	12.01078	0.0000000000000000	A    	0.339966950845074	0.4577295996474049
protein_1567	     1	1.007947	0.0000000000000000	A    	0.2471353042642165	0.06568880041196259
protein_1568	     1	1.007947	0.0000000000000000	A    	0.2471353042642165	0.06568880041196259
protein_1569	     6	12.01078	0.0000000000000000	A    	0.3399669507944831	0.3598240005370534
protein_1570	     8	15.99943	0.0000000000000000	A    	0.2959921901644686	0.8786399993381852
protein_1571	     7	14.00672	0.0000000000000000	A    	0.3249998524031035	0.7112799996555186
protein_1572	     1	1.007947	0.0000000000000000	A    	0.1069078461720523	0.06568880001765333
protein_1573	     6	12.01078	0.0000000000000000	A    	0.339966950845074	0.4577295996474049
protein_1574	     1	1.007947	0.0000000000000000	A    	0.2471353042642165	0.06568880041196259
protein_1575	     6	12.01078	0.0000000000000000	A    	0.3399669507944831	0.3598240005370534
protein_1576	     8	15.99943	0.0000000000000000	A    	0.2959921901644686	0.8786399993381852
protein_1577	     6	12.01078	0.0000000000000000	A    	0.339966950845074	0.4577295996474049
protein_1578	     1	1.007947	0.0000000000000000	A    	0.2649532787260222	0.06568880010977264
protein_1579	     1	1.007947	0.0000000000000000	A    	0.2649532787260222	0.06568880010977264
protein_1580	     6	12.01078	0.0000000000000000	A    	0.339966950845074	0.4577295996474049
protein_1581	     1	1.007947	0.0000000000000000	A    	0.2649532787260222	0.06568880010977264
protein_1582	     6	12.01078	0.0000000000000000	A    	0.339966950845074	0.4577295996474049
protein_1583	     1	1.007947	0.0000000000000000	A    	0.2649532787260222	0.06568880010977264
protein_1584	     1	1.007947	0.0000000000000000	A    	0.2649532787260222	0.06568880010977264
protein_1585	     1	1.007947	0.0000000000000000	A    	0.2649532787260222	0.06568880010977264
protein_1586	     6	12.01078	0.0000000000000000	A    	0.339966950845074	0.4577295996474049
protein_1587	     1	1.007947	0.0000000000000000	A    	0.2649532787260222	0.06568880010977264
protein_1588	     1	1.007947	0.0000000000000000	A    	0.2649532787260222	0.06568880010977264
protein_1589	     1	1.007947	0.0000000000000000	A    	0.2649532787260222	0.06568880010977264
protein_1590	     7	14.00672	0.0000000000000000	A    	0.3249998524031035	0.7112799996555186
protein_1591	     1	1.007947	0.0000000000000000	A    	0.1069078461720523	0.06568880001765333
protein_1592	     6	12.01078	0.0000000000000000	A    	0.339966950845074	0.4577295996474049
protein_1593	     1	1.007947	0.0000000000000000	A    	0.2471353042642165	0.06568880041196259
protein_1594	     6	12.01078	0.0000000000000000	A    	0.3399669507944831	0.3598240005370534
protein_1595	     8	15.99943	0.0000000000000000	A    	0.2959921901644686	0.8786399993381852
protein_1596	     6	12.01078	0.0000000000000000	A    	0.339966950845074	0.4577295996474049
protein_1597	     1	1.007947	0.0000000000000000	A    	0.2471353042642165	0.06568880041196259
protein_1598	     1	1.007947	0.0000000000000000	A    	0.2471353042642165	0.06568880041196259
protein_1599	    16	32.0655	0.0000000000000000	A    	0.3563594872561356	1.046
protein_1600	     1	1.007947	0.0000000000000000	A    	0.1069078461720523	0.06568880001765333
protein_1601	     7	14.00672	0.0000000000000000	A    	0.3249998524031035	0.7112799996555186
protein_1602	     1	1.007947	0.0000000000000000	A    	0.1069078461720523	0.06568880001765333
protein_1603	     6	12.01078	0.0000000000000000	A    	0.339966950845074	0.4577295996474049
protein_1604	     1	1.007947	0.0000000000000000	A    	0.2471353042642165	0.06568880041196259
protein_1605	     6	12.01078	0.0000000000000000	A    	0.3399669507944831	0.3598240005370534
protein_1606	     8	15.99943	0.0000000000000000	A    	0.2959921901644686	0.8786399993381852
protein_1607	     6	12.01078	0.0000000000000000	A    	0.339966950845074	0.4577295996474049
protein_1608	     1	1.007947	0.0000000000000000	A    	0.2649532787260222	0.06568880010977264
protein_1609	     1	1.007947	0.0000000000000000	A    	0.2649532787260222	0.06568880010977264
protein_1610	     6	12.01078	0.0000000000000000	A    	0.3399669507944831	0.3598240005370534
protein_1611	     6	12.01078	0.0000000000000000	A    	0.3399669507944831	0.3598240005370534
protein_1612	     1	1.007947	0.0000000000000000	A    	0.2510552587583135	0.06275999996435834
protein_1613	     7	14.00672	0.0000000000000000	A    	0.3249998524031035	0.7112799996555186
protein_1614	     1	1.007947	0.0000000000000000	A    	0.1069078461720523	0.06568880001765333
protein_1615	     6	12.01078	0.0000000000000000	A    	0.3399669507944831	0.3598240005370534
protein_1616	     1	1.007947	0.0000000000000000	A    	0.2421462715456485	0.06276000013920789
protein_1617	     7	14.00672	0.0000000000000000	A    	0.3249998524031035	0.7112799996555186
protein_1618	     7	14.00672	0.0000000000000000	A    	0.3249998524031035	0.7112799996555186
protein_1619	     1	1.007947	0.0000000000000000	A    	0.1069078461720523	0.06568880001765333
protein_1620	     6	12.01078	0.0000000000000000	A    	0.339966950845074	0.4577295996474049
protein_1621	     1	1.007947	0.0000000000000000	A    	0.2471353042642165	0.06568880041196259
protein_1622	     6	12.01078	0.0000000000000000	A    	0.3399669507944831	0.3598240005370534
protein_1623	     8	15.99943	0.0000000000000000	A    	0.2959921901644686	0.8786399993381852
protein_1624	     6	12.01078	0.0000000000000000	A    	0.339966950845074	0.4577295996474049
protein_1625	     1	1.007947	0.0000000000000000	A    	0.2649532787260222	0.06568880010977264
protein_1626	     1	1.007947	0.0000000000000000	A    	0.2649532787260222	0.06568880010977264
protein_1627	     6	12.01078	0.0000000000000000	A    	0.339966950845074	0.4577295996474049
protein_1628	     1	1.007947	0.0000000000000000	A    	0.2649532787260222	0.06568880010977264
protein_1629	     1	1.007947	0.0000000000000000	A    	0.2649532787260222	0.06568880010977264
protein_1630	     6	12.01078	0.0000000000000000	A    	0.339966950845074	0.4577295996474049
protein_1631	     1	1.007947	0.0000000000000000	A    	0.2471353042642165	0.06568880041196259
protein_1632	     1	1.007947	0.0000000000000000	A    	0.2471353042642165	0.06568880041196259
protein_1633	     7	14.00672	0.0000000000000000	A    	0.3249998524031035	0.7112799996555186
protein_1634	     1	1.007947	0.0000000000000000	A    	0.1069078461720523	0.06568880001765333
protein_1635	     6	12.01078	0.0000000000000000	A    	0.3399669507944831	0.3598240005370534
protein_1636	     7	14.00672	0.0000000000000000	A    	0.3249998524031035	0.7112799996555186
protein_1637	     1	1.007947	0.0000000000000000	A    	0.1069078461720523	0.06568880001765333
protein_1638	     1	1.007947	0.0000000000000000	A    	0.1069078461720523	0.06568880001765333
protein_1639	     7	14.00672	0.0000000000000000	A    	0.3249998524031035	0.7112799996555186
protein_1640	     1	1.007947	0.0000000000000000	A    	0.1069078461720523	0.06568880001765333
protein_1641	     1	1.007947	0.0000000000000000	A    	0.1069078461720523	0.06568880001765333
protein_1642	     7	14.00672	0.0000000000000000	A    	0.3249998524031035	0.7112799996555186
protein_1643	     1	1.007947	0.0000000000000000	A    	0.1069078461720523	0.06568880001765333
protein_1644	     6	12.01078	0.0000000000000000	A    	0.339966950845074	0.4577295996474049
protein_1645	     1	1.007947	0.0000000000000000	A    	0.2471353042642165	0.06568880041196259
protein_1646	     6	12.01078	0.0000000000000000	A    	0.3399669507944831	0.3598240005370534
protein_1647	     8	15.99943	0.0000000000000000	A    	0.2959921901644686	0.8786399993381852
protein_1648	     6	12.01078	0.0000000000000000	A    	0.339966950845074	0.4577295996474049
protein_1649	     1	1.007947	0.0000000000000000	A    	0.2649532787260222	0.06568880010977264
protein_1650	     1	1.007947	0.0000000000000000	A    	0.2649532787260222	0.06568880010977264
protein_1651	     6	12.01078	0.0000000000000000	A    	0.339966950845074	0.4577295996474049
protein_1652	     1	1.007947	0.0000000000000000	A    	0.2649532787260222	0.06568880010977264
protein_1653	     6	12.01078	0.0000000000000000	A    	0.339966950845074	0.4577295996474049
protein_1654	     1	1.007947	0.0000000000000000	A    	0.2649532787260222	0.06568880010977264
protein_1655	     1	1.007947	0.0000000000000000	A    	0.2649532787260222	0.06568880010977264
protein_1656	     1	1.007947	0.0000000000000000	A    	0.2649532787260222	0.06568880010977264
protein_1657	     6	12.01078	0.0000000000000000	A    	0.339966950845074	0.4577295996474049
protein_1658	     1	1.007947	0.0000000000000000	A    	0.2649532787260222	0.06568880010977264
protein_1659	     1	1.007947	0.0000000000000000	A    	0.2649532787260222	0.06568880010977264
protein_1660	     1	1.007947	0.0000000000000000	A    	0.2649532787260222	0.06568880010977264
protein_1661	     7	14.00672	0.0000000000000000	A    	0.3249998524031035	0.7112799996555186
protein_1662	     1	1.007947	0.0000000000000000	A    	0.1069078461720523	0.06568880001765333
protein_1663	     6	12.01078	0.0000000000000000	A    	0.339966950845074	0.4577295996474049
protein_1664	     1	1.007947	0.0000000000000000	A    	0.2471353042642165	0.06568880041196259
protein_1665	     6	12.01078	0.0000000000000000	A    	0.3399669507944831	0.3598240005370534
protein_1666	     8	15.99943	0.0000000000000000	A    	0.2959921901644686	0.8786399993381852
protein_1667	     6	12.01078	0.0000000000000000	A    	0.339966950845074	0.4577295996474049
protein_1668	     1	1.007947	0.0000000000000000	A    	0.2471353042642165	0.06568880041196259
protein_1669	     6	12.01078	0.0000000000000000	A    	0.339966950845074	0.4577295996474049
protein_1670	     1	1.007947	0.0000000000000000	A    	0.2649532787260222	0.06568880010977264
protein_1671	     1	1.007947	0.0000000000000000	A    	0.2649532787260222	0.06568880010977264
protein_1672	     1	1.007947	0.0000000000000000	A    	0.2649532787260222	0.06568880010977264
protein_1673	     8	15.99943	0.0000000000000000	A    	0.3066473387458142	0.8803136010405576
protein_1674	     1	1.007947	0.0000000000000000	A    	0	0
protein_1675	     7	14.00672	0.0000000000000000	A    	0.3249998524031035	0.7112799996555186
protein_1676	     1	1.007947	0.0000000000000000	A    	0.1069078461720523	0.06568880001765333
protein_1677	     6	12.01078	0.0000000000000000	A    	0.339966950845074	0.4577295996474049
protein_1678	     1	1.007947	0.0000000000000000	A    	0.2471353042642165	0.06568880041196259
protein_1679	     6	12.01078	0.0000000000000000	A    	0.3399669507944831	0.3598240005370534
protein_1680	     8	15.99943	0.0000000000000000	A    	0.2959921901644686	0.8786399993381852
protein_1681	     6	12.01078	0.0000000000000000	A    	0.339966950845074	0.4577295996474049
protein_1682	     1	1.007947	0.0000000000000000	A    	0.2471353042642165	0.06568880041196259
protein_1683	     6	12.01078	0.0000000000000000	A    	0.339966950845074	0.4577295996474049
protein_1684	     1	1.007947	0.0000000000000000	A    	0.2649532787260222	0.06568880010977264
protein_1685	     1	1.007947	0.0000000000000000	A    	0.2649532787260222	0.06568880010977264
protein_1686	     1	1.007947	0.0000000000000000	A    	0.2649532787260222	0.06568880010977264
protein_1687	     8	15.99943	0.0000000000000000	A    	0.3066473387458142	0.8803136010405576
protein_1688	     1	1.007947	0.0000000000000000	A    	0	0
protein_1689	     7	14.00672	0.0000000000000000	A    	0.3249998524031035	0.7112799996555186
protein_1690	     1	1.007947	0.0000000000000000	A    	0.1069078461720523	0.06568880001765333
protein_1691	     6	12.01078	0.0000000000000000	A    	0.339966950845074	0.4577295996474049
protein_1692	     1	1.007947	0.0000000000000000	A    	0.2471353042642165	0.06568880041196259
protein_1693	     6	12.01078	0.0000000000000000	A    	0.3399669507944831	0.3598240005370534
protein_1694	     8	15.99943	0.0000000000000000	A    	0.2959921901644686	0.8786399993381852
protein_1695	     6	12.01078	0.0000000000000000	A    	0.339966950845074	0.4577295996474049
protein_1696	     1	1.007947	0.0000000000000000	A    	0.2649532787260222	0.06568880010977264
protein_1697	     6	12.01078	0.0000000000000000	A    	0.339966950845074	0.4577295996474049
protein_1698	     1	1.007947	0.0000000000000000	A    	0.2649532787260222	0.06568880010977264
protein_1699	     1	1.007947	0.0000000000000000	A    	0.2649532787260222	0.06568880010977264
protein_1700	     1	1.007947	0.0000000000000000	A    	0.2649532787260222	0.06568880010977264
protein_1701	     6	12.01078	0.0000000000000000	A    	0.339966950845074	0.4577295996474049
protein_1702	     1	1.007947	0.0000000000000000	A    	0.2649532787260222	0.06568880010977264
protein_1703	     1	1.007947	0.0000000000000000	A    	0.2649532787260222	0.06568880010977264
protein_1704	     1	1.007947	0.0000000000000000	A    	0.2649532787260222	0.06568880010977264
protein_1705	     7	14.00672	0.0000000000000000	A    	0.3249998524031035	0.7112799996555186
protein_1706	     1	1.007947	0.0000000000000000	A    	0.1069078461720523	0.06568880001765333
protein_1707	     6	12.01078	0.0000000000000000	A    	0.339966950845074	0.4577295996474049
protein_1708	     1	1.007947	0.0000000000000000	A    	0.2471353042642165	0.06568880041196259
protein_1709	     6	12.01078	0.0000000000000000	A    	0.3399669507944831	0.3598240005370534
protein_1710	     8	15.99943	0.0000000000000000	A    	0.2959921901644686	0.8786399993381852
protein_1711	     6	12.01078	0.0000000000000000	A    	0.339966950845074	0.4577295996474049
protein_1712	     1	1.007947	0.0000000000000000	A    	0.2471353042642165	0.06568880041196259
protein_1713	     1	1.007947	0.0000000000000000	A    	0.2471353042642165	0.06568880041196259
protein_1714	    16	32.0655	0.0000000000000000	A    	0.3563594872561356	1.046
protein_1715	     1	1.007947	0.0000000000000000	A    	0.1069078461720523	0.06568880001765333
protein_1716	     7	14.00672	0.0000000000000000	A    	0.3249998524031035	0.7112799996555186
protein_1717	     6	12.01078	0.0000000000000000	A    	0.339966950845074	0.4577295996474049
protein_1718	     1	1.007947	0.0000000000000000	A    	0.2471353042642165	0.06568880041196259
protein_1719	     6	12.01078	0.0000000000000000	A    	0.3399669507944831	0.3598240005370534
protein_1720	     8	15.99943	0.0000000000000000	A    	0.2959921901644686	0.8786399993381852
protein_1721	     6	12.01078	0.0000000000000000	A    	0.339966950845074	0.4577295996474049
protein_1722	     1	1.007947	0.0000000000000000	A    	0.2649532787260222	0.06568880010977264
protein_1723	     1	1.007947	0.0000000000000000	A    	0.2649532787260222	0.06568880010977264
protein_1724	     6	12.01078	0.0000000000000000	A    	0.339966950845074	0.4577295996474049
protein_1725	     1	1.007947	0.0000000000000000	A    	0.2649532787260222	0.06568880010977264
protein_1726	     1	1.007947	0.0000000000000000	A    	0.2649532787260222	0.06568880010977264
protein_1727	     6	12.01078	0.0000000000000000	A    	0.339966950845074	0.4577295996474049
protein_1728	     1	1.007947	0.0000000000000000	A    	0.2471353042642165	0.06568880041196259
protein_1729	     1	1.007947	0.0000000000000000	A    	0.2471353042642165	0.06568880041196259
protein_1730	     7	14.00672	0.0000000000000000	A    	0.3249998524031035	0.7112799996555186
protein_1731	     1	1.007947	0.0000000000000000	A    	0.1069078461720523	0.06568880001765333
protein_1732	     6	12.01078	0.0000000000000000	A    	0.339966950845074	0.4577295996474049
protein_1733	     1	1.007947	0.0000000000000000	A    	0.2471353042642165	0.06568880041196259
protein_1734	     6	12.01078	0.0000000000000000	A    	0.3399669507944831	0.3598240005370534
protein_1735	     8	15.99943	0.0000000000000000	A    	0.2959921901644686	0.8786399993381852
protein_1736	     6	12.01078	0.0000000000000000	A    	0.339966950845074	0.4577295996474049
protein_1737	     1	1.007947	0.0000000000000000	A    	0.2471353042642165	0.06568880041196259
protein_1738	     6	12.01078	0.0000000000000000	A    	0.339966950845074	0.4577295996474049
protein_1739	     1	1.007947	0.0000000000000000	A    	0.2649532787260222	0.06568880010977264
protein_1740	     1	1.007947	0.0000000000000000	A    	0.2649532787260222	0.06568880010977264
protein_1741	     1	1.007947	0.0000000000000000	A    	0.2649532787260222	0.06568880010977264
protein_1742	     8	15.99943	0.0000000000000000	A    	0.3066473387458142	0.8803136010405576
protein_1743	     1	1.007947	0.0000000000000000	A    	0	0
protein_1744	     7	14.00672	0.0000000000000000	A    	0.3249998524031035	0.7112799996555186
protein_1745	     1	1.007947	0.0000000000000000	A    	0.1069078461720523	0.06568880001765333
protein_1746	     6	12.01078	0.0000000000000000	A    	0.339966950845074	0.4577295996474049
protein_1747	     1	1.007947	0.0000000000000000	A    	0.2471353042642165	0.06568880041196259
protein_1748	     6	12.01078	0.0000000000000000	A    	0.3399669507944831	0.3598240005370534
protein_1749	     8	15.99943	0.0000000000000000	A    	0.2959921901644686	0.8786399993381852
protein_1750	     6	12.01078	0.0000000000000000	A    	0.339966950845074	0.4577295996474049
protein_1751	     1	1.007947	0.0000000000000000	A    	0.2471353042642165	0.06568880041196259
protein_1752	     1	1.007947	0.0000000000000000	A    	0.2471353042642165	0.06568880041196259
protein_1753	     8	15.99943	0.0000000000000000	A    	0.3066473387458142	0.8803136010405576
protein_1754	     1	1.007947	0.0000000000000000	A    	0	0
protein_1755	     7	14.00672	0.0000000000000000	A    	0.3249998524031035	0.7112799996555186
protein_1756	     1	1.007947	0.0000000000000000	A    	0.1069078461720523	0.06568880001765333
protein_1757	     6	12.01078	0.0000000000000000	A    	0.339966950845074	0.4577295996474049
protein_1758	     1	1.007947	0.0000000000000000	A    	0.2471353042642165	0.06568880041196259
protein_1759	     6	12.01078	0.0000000000000000	A    	0.3399669507944831	0.3598240005370534
protein_1760	     8	15.99943	0.0000000000000000	A    	0.2959921901644686	0.8786399993381852
protein_1761	     6	12.01078	0.0000000000000000	A    	0.339966950845074	0.4577295996474049
protein_1762	     1	1.007947	0.0000000000000000	A    	0.2649532787260222	0.06568880010977264
protein_1763	     1	1.007947	0.0000000000000000	A    	0.2649532787260222	0.06568880010977264
protein_1764	     6	12.01078	0.0000000000000000	A    	0.339966950845074	0.4577295996474049
protein_1765	     1	1.007947	0.0000000000000000	A    	0.2649532787260222	0.06568880010977264
protein_1766	     1	1.007947	0.0000000000000000	A    	0.2649532787260222	0.06568880010977264
protein_1767	     6	12.01078	0.0000000000000000	A    	0.339966950845074	0.4577295996474049
protein_1768	     1	1.007947	0.0000000000000000	A    	0.2649532787260222	0.06568880010977264
protein_1769	     1	1.007947	0.0000000000000000	A    	0.2649532787260222	0.06568880010977264
protein_1770	     6	12.01078	0.0000000000000000	A    	0.339966950845074	0.4577295996474049
protein_1771	     1	1.007947	0.0000000000000000	A    	0.1959977179007358	0.06568880026244604
protein_1772	     1	1.007947	0.0000000000000000	A    	0.1959977179007358	0.06568880026244604
protein_1773	     7	14.00672	0.0000000000000000	A    	0.3249998524031035	0.7112799996555186
protein_1774	     1	1.007947	0.0000000000000000	A    	0.1069078461720523	0.06568880001765333
protein_1775	     1	1.007947	0.0000000000000000	A    	0.1069078461720523	0.06568880001765333
protein_1776	     1	1.007947	0.0000000000000000	A    	0.1069078461720523	0.06568880001765333
protein_1777	     8	15.99943	0.0000000000000000	A    	0.2959921901644686	0.8786399993381852
pTyr_peptide_0	     7	14.00672	0.0000000000000000	A    	0.3206876023663901	0.7016212989374017
pTyr_peptide_1	     6	12.01078	0.0000000000000000	A    	0.337953176162662	0.4553891161106184
pTyr_peptide_2	     6	12.01078	0.0000000000000000	A    	0.3480646886945065	0.3635030558377792
pTyr_peptide_3	     8	15.99943	0.0000000000000000	A    	0.3039812205065809	0.8795023257036865
pTyr_peptide_4	     6	12.01078	0.0000000000000000	A    	0.337953176162662	0.4553891161106184
pTyr_peptide_5	     6	12.01078	0.0000000000000000	A    	0.337953176162662	0.4553891161106184
pTyr_peptide_6	     6	12.01078	0.0000000000000000	A    	0.3480646886945065	0.3635030558377792
pTyr_peptide_7	     8	15.99943	0.0000000000000000	A    	0.3039812205065809	0.8795023257036865
pTyr_peptide_8	     8	15.99943	0.0000000000000000	A    	0.3039812205065809	0.8795023257036865
pTyr_peptide_9	     7	14.00672	0.0000000000000000	A    	0.3206876023663901	0.7016212989374017
pTyr_peptide_10	     6	12.01078	0.0000000000000000	A    	0.337953176162662	0.4553891161106184
pTyr_peptide_11	     6	12.01078	0.0000000000000000	A    	0.3480646886945065	0.3635030558377792
pTyr_peptide_12	     8	15.99943	0.0000000000000000	A    	0.3039812205065809	0.8795023257036865
pTyr_peptide_13	     6	12.01078	0.0000000000000000	A    	0.337953176162662	0.4553891161106184
pTyr_peptide_14	     6	12.01078	0.0000000000000000	A    	0.337953176162662	0.4553891161106184
pTyr_peptide_15	     6	12.01078	0.0000000000000000	A    	0.337953176162662	0.4553891161106184
pTyr_peptide_16	     7	14.00672	0.0000000000000000	A    	0.3206876023663901	0.7016212989374017
pTyr_peptide_17	     6	12.01078	0.0000000000000000	A    	0.337953176162662	0.4553891161106184
pTyr_peptide_18	     6	12.01078	0.0000000000000000	A    	0.3480646886945065	0.3635030558377792
pTyr_peptide_19	     8	15.99943	0.0000000000000000	A    	0.3039812205065809	0.8795023257036865
pTyr_peptide_20	     6	12.01078	0.0000000000000000	A    	0.337953176162662	0.4553891161106184
pTyr_peptide_21	     6	12.01078	0.0000000000000000	A    	0.337953176162662	0.4553891161106184
pTyr_peptide_22	     6	12.01078	0.0000000000000000	A    	0.3480646886945065	0.3635030558377792
pTyr_peptide_23	     7	14.00672	0.0000000000000000	A    	0.3206876023663901	0.7016212989374017
pTyr_peptide_24	     8	15.99943	0.0000000000000000	A    	0.3039812205065809	0.8795023257036865
pTyr_peptide_25	     7	14.00672	0.0000000000000000	A    	0.3206876023663901	0.7016212989374017
pTyr_peptide_26	     6	12.01078	0.0000000000000000	A    	0.337953176162662	0.4553891161106184
pTyr_peptide_27	     6	12.01078	0.0000000000000000	A    	0.337953176162662	0.4553891161106184
pTyr_peptide_28	     8	15.99943	0.0000000000000000	A    	0.2997159987248637	0.8764372596155737
pTyr_peptide_29	     6	12.01078	0.0000000000000000	A    	0.337953176162662	0.4553891161106184
pTyr_peptide_30	     6	12.01078	0.0000000000000000	A    	0.337953176162662	0.4553891161106184
pTyr_peptide_31	     6	12.01078	0.0000000000000000	A    	0.337953176162662	0.4553891161106184
pTyr_peptide_32	     6	12.01078	0.0000000000000000	A    	0.337953176162662	0.4553891161106184
pTyr_peptide_33	     6	12.01078	0.0000000000000000	A    	0.337953176162662	0.4553891161106184
pTyr_peptide_34	     6	12.01078	0.0000000000000000	A    	0.337953176162662	0.4553891161106184
pTyr_peptide_35	     6	12.01078	0.0000000000000000	A    	0.337953176162662	0.4553891161106184
pTyr_peptide_36	     8	15.99943	0.0000000000000000	A    	0.3025106490435313	0.7048581468486769
pTyr_peptide_37	    15	30.9737622	0.0000000000000000	A    	0.3741774616189425	0.8368000000000001
pTyr_peptide_38	     8	15.99943	0.0000000000000000	A    	0.3039812205065809	0.8795023257036865
pTyr_peptide_39	     8	15.99943	0.0000000000000000	A    	0.3039812205065809	0.8795023257036865
pTyr_peptide_40	     8	15.99943	0.0000000000000000	A    	0.3039812205065809	0.8795023257036865
pTyr_peptide_41	     7	14.00672	0.0000000000000000	A    	0.3206876023663901	0.7016212989374017
pTyr_peptide_42	     6	12.01078	0.0000000000000000	A    	0.337953176162662	0.4553891161106184
pTyr_peptide_43	     6	12.01078	0.0000000000000000	A    	0.3480646886945065	0.3635030558377792
pTyr_peptide_44	     8	15.99943	0.0000000000000000	A    	0.3039812205065809	0.8795023257036865
pTyr_peptide_45	     6	12.01078	0.0000000000000000	A    	0.337953176162662	0.4553891161106184
pTyr_peptide_46	     6	12.01078	0.0000000000000000	A    	0.337953176162662	0.4553891161106184
pTyr_peptide_47	     6	12.01078	0.0000000000000000	A    	0.3480646886945065	0.3635030558377792
pTyr_peptide_48	     8	15.99943	0.0000000000000000	A    	0.3039812205065809	0.8795023257036865
pTyr_peptide_49	     8	15.99943	0.0000000000000000	A    	0.3039812205065809	0.8795023257036865
pTyr_peptide_50	     7	14.00672	0.0000000000000000	A    	0.3206876023663901	0.7016212989374017
pTyr_peptide_51	     6	12.01078	0.0000000000000000	A    	0.337953176162662	0.4553891161106184
pTyr_peptide_52	     6	12.01078	0.0000000000000000	A    	0.3480646886945065	0.3635030558377792
pTyr_peptide_53	     8	15.99943	0.0000000000000000	A    	0.3039812205065809	0.8795023257036865
pTyr_peptide_54	     6	12.01078	0.0000000000000000	A    	0.337953176162662	0.4553891161106184
pTyr_peptide_55	     6	12.01078	0.0000000000000000	A    	0.337953176162662	0.4553891161106184
pTyr_peptide_56	     6	12.01078	0.0000000000000000	A    	0.3480646886945065	0.3635030558377792
pTyr_peptide_57	     8	15.99943	0.0000000000000000	A    	0.3039812205065809	0.8795023257036865
pTyr_peptide_58	     8	15.99943	0.0000000000000000	A    	0.3039812205065809	0.8795023257036865
pTyr_peptide_59	     7	14.00672	0.0000000000000000	A    	0.3206876023663901	0.7016212989374017
pTyr_peptide_60	     6	12.01078	0.0000000000000000	A    	0.337953176162662	0.4553891161106184
pTyr_peptide_61	     6	12.01078	0.0000000000000000	A    	0.3480646886945065	0.3635030558377792
pTyr_peptide_62	     8	15.99943	0.0000000000000000	A    	0.3039812205065809	0.8795023257036865
pTyr_peptide_63	     6	12.01078	0.0000000000000000	A    	0.337953176162662	0.4553891161106184
pTyr_peptide_64	     6	12.01078	0.0000000000000000	A    	0.337953176162662	0.4553891161106184
pTyr_peptide_65	     6	12.01078	0.0000000000000000	A    	0.337953176162662	0.4553891161106184
pTyr_peptide_66	     6	12.01078	0.0000000000000000	A    	0.337953176162662	0.4553891161106184
pTyr_peptide_67	     7	14.00672	0.0000000000000000	A    	0.3206876023663901	0.7016212989374017
pTyr_peptide_68	     6	12.01078	0.0000000000000000	A    	0.337953176162662	0.4553891161106184
pTyr_peptide_69	     6	12.01078	0.0000000000000000	A    	0.3480646886945065	0.3635030558377792
pTyr_peptide_70	     8	15.99943	0.0000000000000000	A    	0.3039812205065809	0.8795023257036865
pTyr_peptide_71	     6	12.01078	0.0000000000000000	A    	0.337953176162662	0.4553891161106184
pTyr_peptide_72	     6	12.01078	0.0000000000000000	A    	0.337953176162662	0.4553891161106184
pTyr_peptide_73	     6	12.01078	0.0000000000000000	A    	0.337953176162662	0.4553891161106184
pTyr_peptide_74	     7	14.00672	0.0000000000000000	A    	0.3206876023663901	0.7016212989374017
pTyr_peptide_75	     6	12.01078	0.0000000000000000	A    	0.337953176162662	0.4553891161106184
pTyr_peptide_76	     6	12.01078	0.0000000000000000	A    	0.3480646886945065	0.3635030558377792
pTyr_peptide_77	     8	15.99943	0.0000000000000000	A    	0.3039812205065809	0.8795023257036865
pTyr_peptide_78	     6	12.01078	0.0000000000000000	A    	0.337953176162662	0.4553891161106184
pTyr_peptide_79	     6	12.01078	0.0000000000000000	A    	0.337953176162662	0.4553891161106184
pTyr_peptide_80	     6	12.01078	0.0000000000000000	A    	0.337953176162662	0.4553891161106184
pTyr_peptide_81	     6	12.01078	0.0000000000000000	A    	0.337953176162662	0.4553891161106184
pTyr_peptide_82	     7	14.00672	0.0000000000000000	A    	0.3206876023663901	0.7016212989374017
pTyr_peptide_83	     6	12.01078	0.0000000000000000	A    	0.337953176162662	0.4553891161106184
pTyr_peptide_84	     6	12.01078	0.0000000000000000	A    	0.3480646886945065	0.3635030558377792
pTyr_peptide_85	     8	15.99943	0.0000000000000000	A    	0.3039812205065809	0.8795023257036865
pTyr_peptide_86	     6	12.01078	0.0000000000000000	A    	0.337953176162662	0.4553891161106184
pTyr_peptide_87	     6	12.01078	0.0000000000000000	A    	0.3480646886945065	0.3635030558377792
pTyr_peptide_88	     6	12.01078	0.0000000000000000	A    	0.3480646886945065	0.3635030558377792
pTyr_peptide_89	     6	12.01078	0.0000000000000000	A    	0.3480646886945065	0.3635030558377792
pTyr_peptide_90	     6	12.01078	0.0000000000000000	A    	0.3480646886945065	0.3635030558377792
pTyr_peptide_91	     6	12.01078	0.0000000000000000	A    	0.3480646886945065	0.3635030558377792
pTyr_peptide_92	     6	12.01078	0.0000000000000000	A    	0.3480646886945065	0.3635030558377792
pTyr_peptide_93	     8	15.99943	0.0000000000000000	A    	0.2997159987248637	0.8764372596155737
pTyr_peptide_94	     7	14.00672	0.0000000000000000	A    	0.3206876023663901	0.7016212989374017
pTyr_peptide_95	     6	12.01078	0.0000000000000000	A    	0.337953176162662	0.4553891161106184
pTyr_peptide_96	     6	12.01078	0.0000000000000000	A    	0.3480646886945065	0.3635030558377792
pTyr_peptide_97	     8	15.99943	0.0000000000000000	A    	0.3039812205065809	0.8795023257036865
pTyr_peptide_98	     6	12.01078	0.0000000000000000	A    	0.337953176162662	0.4553891161106184
pTyr_peptide_99	     6	12.01078	0.0000000000000000	A    	0.337953176162662	0.4553891161106184
pTyr_peptide_100	     6	12.01078	0.0000000000000000	A    	0.337953176162662	0.4553891161106184
pTyr_peptide_101	     6	12.01078	0.0000000000000000	A    	0.337953176162662	0.4553891161106184
pTyr_peptide_102	     6	12.01078	0.0000000000000000	A    	0.3480646886945065	0.3635030558377792
pTyr_peptide_103	     8	15.99943	0.0000000000000000	A    	0.3039812205065809	0.8795023257036865
pTyr_peptide_104	     6	12.01078	0.0000000000000000	A    	0.337953176162662	0.4553891161106184
pTyr_peptide_105	     7	14.00672	0.0000000000000000	A    	0.3206876023663901	0.7016212989374017
pTyr_peptide_106	     6	12.01078	0.0000000000000000	A    	0.337953176162662	0.4553891161106184
pTyr_peptide_107	     1	1.007947	0.0000000000000000	A    	0.1103427677297317	0.05895596890015097
pTyr_peptide_108	     1	1.007947	0.0000000000000000	A    	0.2583225710839196	0.068656285380106
pTyr_peptide_109	     1	1.007947	0.0000000000000000	A    	0.2644543413268124	0.06602135607582665
pTyr_peptide_110	     1	1.007947	0.0000000000000000	A    	0.2644543413268124	0.06602135607582665
pTyr_peptide_111	     1	1.007947	0.0000000000000000	A    	0.2644543413268124	0.06602135607582665
pTyr_peptide_112	     1	1.007947	0.0000000000000000	A    	0.2644543413268124	0.06602135607582665
pTyr_peptide_113	     1	1.007947	0.0000000000000000	A    	0.2583225710839196	0.068656285380106
pTyr_peptide_114	     1	1.007947	0.0000000000000000	A    	0.2644543413268124	0.06602135607582665
pTyr_peptide_115	     1	1.007947	0.0000000000000000	A    	0.2644543413268124	0.06602135607582665
pTyr_peptide_116	     1	1.007947	0.0000000000000000	A    	0.2644543413268124	0.06602135607582665
pTyr_peptide_117	     1	1.007947	0.0000000000000000	A    	0.2644543413268124	0.06602135607582665
pTyr_peptide_118	     1	1.007947	0.0000000000000000	A    	0.2583225710839196	0.068656285380106
pTyr_peptide_119	     1	1.007947	0.0000000000000000	A    	0.2583225710839196	0.068656285380106
pTyr_peptide_120	     1	1.007947	0.0000000000000000	A    	0.1103427677297317	0.05895596890015097
pTyr_peptide_121	     1	1.007947	0.0000000000000000	A    	0.2583225710839196	0.068656285380106
pTyr_peptide_122	     1	1.007947	0.0000000000000000	A    	0.2644543413268124	0.06602135607582665
pTyr_peptide_123	     1	1.007947	0.0000000000000000	A    	0.2644543413268124	0.06602135607582665
pTyr_peptide_124	     1	1.007947	0.0000000000000000	A    	0.2644543413268124	0.06602135607582665
pTyr_peptide_125	     1	1.007947	0.0000000000000000	A    	0.2644543413268124	0.06602135607582665
pTyr_peptide_126	     1	1.007947	0.0000000000000000	A    	0.1103427677297317	0.05895596890015097
pTyr_peptide_127	     1	1.007947	0.0000000000000000	A    	0.1103427677297317	0.05895596890015097
pTyr_peptide_128	     1	1.007947	0.0000000000000000	A    	0.1103427677297317	0.05895596890015097
pTyr_peptide_129	     1	1.007947	0.0000000000000000	A    	0.2583225710839196	0.068656285380106
pTyr_peptide_130	     1	1.007947	0.0000000000000000	A    	0.2293173300493233	0.06568879999999999
pTyr_peptide_131	     1	1.007947	0.0000000000000000	A    	0.0534539230883669	5.157198260534728e-05
pTyr_peptide_132	     1	1.007947	0.0000000000000000	A    	0.2644543413268124	0.06602135607582665
pTyr_peptide_133	     1	1.007947	0.0000000000000000	A    	0.2644543413268124	0.06602135607582665
pTyr_peptide_134	     1	1.007947	0.0000000000000000	A    	0.2644543413268124	0.06602135607582665
pTyr_peptide_135	     1	1.007947	0.0000000000000000	A    	0.2644543413268124	0.06602135607582665
pTyr_peptide_136	     1	1.007947	0.0000000000000000	A    	0.2644543413268124	0.06602135607582665
pTyr_peptide_137	     1	1.007947	0.0000000000000000	A    	0.2644543413268124	0.06602135607582665
pTyr_peptide_138	     1	1.007947	0.0000000000000000	A    	0.2644543413268124	0.06602135607582665
pTyr_peptide_139	     1	1.007947	0.0000000000000000	A    	0.2644543413268124	0.06602135607582665
pTyr_peptide_140	     1	1.007947	0.0000000000000000	A    	0.2644543413268124	0.06602135607582665
pTyr_peptide_141	     1	1.007947	0.0000000000000000	A    	0.2644543413268124	0.06602135607582665
pTyr_peptide_142	     1	1.007947	0.0000000000000000	A    	0.2644543413268124	0.06602135607582665
pTyr_peptide_143	     1	1.007947	0.0000000000000000	A    	0.2583225710839196	0.068656285380106
pTyr_peptide_144	     1	1.007947	0.0000000000000000	A    	0.1103427677297317	0.05895596890015097
pTyr_peptide_145	     1	1.007947	0.0000000000000000	A    	0.2583225710839196	0.068656285380106
pTyr_peptide_146	     1	1.007947	0.0000000000000000	A    	0.2644543413268124	0.06602135607582665
pTyr_peptide_147	     1	1.007947	0.0000000000000000	A    	0.2644543413268124	0.06602135607582665
pTyr_peptide_148	     1	1.007947	0.0000000000000000	A    	0.2644543413268124	0.06602135607582665
pTyr_peptide_149	     1	1.007947	0.0000000000000000	A    	0.2644543413268124	0.06602135607582665
pTyr_peptide_150	     1	1.007947	0.0000000000000000	A    	0.1103427677297317	0.05895596890015097
pTyr_peptide_151	     1	1.007947	0.0000000000000000	A    	0.2583225710839196	0.068656285380106
pTyr_peptide_152	     1	1.007947	0.0000000000000000	A    	0.2644543413268124	0.06602135607582665
pTyr_peptide_153	     1	1.007947	0.0000000000000000	A    	0.2644543413268124	0.06602135607582665
pTyr_peptide_154	     1	1.007947	0.0000000000000000	A    	0.2644543413268124	0.06602135607582665
pTyr_peptide_155	     1	1.007947	0.0000000000000000	A    	0.2644543413268124	0.06602135607582665
pTyr_peptide_156	     1	1.007947	0.0000000000000000	A    	0.1103427677297317	0.05895596890015097
pTyr_peptide_157	     1	1.007947	0.0000000000000000	A    	0.2583225710839196	0.068656285380106
pTyr_peptide_158	     1	1.007947	0.0000000000000000	A    	0.2644543413268124	0.06602135607582665
pTyr_peptide_159	     1	1.007947	0.0000000000000000	A    	0.2644543413268124	0.06602135607582665
pTyr_peptide_160	     1	1.007947	0.0000000000000000	A    	0.2644543413268124	0.06602135607582665
pTyr_peptide_161	     1	1.007947	0.0000000000000000	A    	0.2644543413268124	0.06602135607582665
pTyr_peptide_162	     1	1.007947	0.0000000000000000	A    	0.2644543413268124	0.06602135607582665
pTyr_peptide_163	     1	1.007947	0.0000000000000000	A    	0.2644543413268124	0.06602135607582665
pTyr_peptide_164	     1	1.007947	0.0000000000000000	A    	0.2644543413268124	0.06602135607582665
pTyr_peptide_165	     1	1.007947	0.0000000000000000	A    	0.2644543413268124	0.06602135607582665
pTyr_peptide_166	     1	1.007947	0.0000000000000000	A    	0.2644543413268124	0.06602135607582665
pTyr_peptide_167	     1	1.007947	0.0000000000000000	A    	0.2583225710839196	0.068656285380106
pTyr_peptide_168	     1	1.007947	0.0000000000000000	A    	0.2644543413268124	0.06602135607582665
pTyr_peptide_169	     1	1.007947	0.0000000000000000	A    	0.2644543413268124	0.06602135607582665
pTyr_peptide_170	     1	1.007947	0.0000000000000000	A    	0.2644543413268124	0.06602135607582665
pTyr_peptide_171	     1	1.007947	0.0000000000000000	A    	0.2644543413268124	0.06602135607582665
pTyr_peptide_172	     1	1.007947	0.0000000000000000	A    	0.2583225710839196	0.068656285380106
pTyr_peptide_173	     1	1.007947	0.0000000000000000	A    	0.2583225710839196	0.068656285380106
pTyr_peptide_174	     1	1.007947	0.0000000000000000	A    	0.1103427677297317	0.05895596890015097
pTyr_peptide_175	     1	1.007947	0.0000000000000000	A    	0.2583225710839196	0.068656285380106
pTyr_peptide_176	     1	1.007947	0.0000000000000000	A    	0.2644543413268124	0.06602135607582665
pTyr_peptide_177	     1	1.007947	0.0000000000000000	A    	0.2644543413268124	0.06602135607582665
pTyr_peptide_178	     1	1.007947	0.0000000000000000	A    	0.2644543413268124	0.06602135607582665
pTyr_peptide_179	     1	1.007947	0.0000000000000000	A    	0.2644543413268124	0.06602135607582665
pTyr_peptide_180	     1	1.007947	0.0000000000000000	A    	0.2644543413268124	0.06602135607582665
pTyr_peptide_181	     1	1.007947	0.0000000000000000	A    	0.2644543413268124	0.06602135607582665
pTyr_peptide_182	     1	1.007947	0.0000000000000000	A    	0.2644543413268124	0.06602135607582665
pTyr_peptide_183	     1	1.007947	0.0000000000000000	A    	0.2644543413268124	0.06602135607582665
pTyr_peptide_184	     1	1.007947	0.0000000000000000	A    	0.2644543413268124	0.06602135607582665
pTyr_peptide_185	     1	1.007947	0.0000000000000000	A    	0.1103427677297317	0.05895596890015097
pTyr_peptide_186	     1	1.007947	0.0000000000000000	A    	0.2583225710839196	0.068656285380106
pTyr_peptide_187	     1	1.007947	0.0000000000000000	A    	0.2644543413268124	0.06602135607582665
pTyr_peptide_188	     1	1.007947	0.0000000000000000	A    	0.2644543413268124	0.06602135607582665
pTyr_peptide_189	     1	1.007947	0.0000000000000000	A    	0.2572581535063279	0.06531785996356952
pTyr_peptide_190	     1	1.007947	0.0000000000000000	A    	0.2572581535063279	0.06531785996356952
pTyr_peptide_191	     1	1.007947	0.0000000000000000	A    	0.2572581535063279	0.06531785996356952
pTyr_peptide_192	     1	1.007947	0.0000000000000000	A    	0.2572581535063279	0.06531785996356952
pTyr_peptide_193	     1	1.007947	0.0000000000000000	A    	0.0534539230883669	5.157198260534728e-05
pTyr_peptide_194	     1	1.007947	0.0000000000000000	A    	0.1103427677297317	0.05895596890015097
pTyr_peptide_195	     1	1.007947	0.0000000000000000	A    	0.2583225710839196	0.068656285380106
pTyr_peptide_196	     1	1.007947	0.0000000000000000	A    	0.2644543413268124	0.06602135607582665
pTyr_peptide_197	     1	1.007947	0.0000000000000000	A    	0.2644543413268124	0.06602135607582665
pTyr_peptide_198	     1	1.007947	0.0000000000000000	A    	0.2644543413268124	0.06602135607582665
pTyr_peptide_199	     1	1.007947	0.0000000000000000	A    	0.2644543413268124	0.06602135607582665
pTyr_peptide_200	     1	1.007947	0.0000000000000000	A    	0.2644543413268124	0.06602135607582665
pTyr_peptide_201	     1	1.007947	0.0000000000000000	A    	0.2644543413268124	0.06602135607582665
pTyr_peptide_202	     1	1.007947	0.0000000000000000	A    	0.2644543413268124	0.06602135607582665
pTyr_peptide_203	     1	1.007947	0.0000000000000000	A    	0.2644543413268124	0.06602135607582665
pTyr_peptide_204	     1	1.007947	0.0000000000000000	A    	0.2644543413268124	0.06602135607582665
pTyr_peptide_205	     1	1.007947	0.0000000000000000	A    	0.2644543413268124	0.06602135607582665
pTyr_peptide_206	     1	1.007947	0.0000000000000000	A    	0.2644543413268124	0.06602135607582665
pTyr_peptide_207	     1	1.007947	0.0000000000000000	A    	0.2644543413268124	0.06602135607582665
pTyr_peptide_208	     1	1.007947	0.0000000000000000	A    	0.1103427677297317	0.05895596890015097
pTyr_peptide_209	     1	1.007947	0.0000000000000000	A    	0.2583225710839196	0.068656285380106
pTyr_peptide_210	     1	1.007947	0.0000000000000000	A    	0.2583225710839196	0.068656285380106
pTyr_peptide_211	     1	1.007947	0.0000000000000000	A    	0.2583225710839196	0.068656285380106
SOL_0      	     8	15.99943	0.0000000000000000	A    	0.31507	0.6363864000000001
SOL_1      	     1	1.007947	0.0000000000000000	A    	0.09999999999999999	0
SOL_2      	     1	1.007947	0.0000000000000000	A    	0.09999999999999999	0
NA_0       	    11	22.989769282	0.0000000000000000	A    	0.2439280690268249	0.3658460312

